          28
ANG Step:        569 Time:    11761.4555281844
C          1.6514237816        13.6713713030         9.3543830614
C          2.9989054955        13.4265486555         9.0735179673
C          3.4885958631        12.0982633194         9.2348936393
C          2.6043631220        11.0044610878         9.3641571854
C          1.2499155489        11.2589967859         9.6528208865
C          0.7478725288        12.5458266153         9.5833885225
H          4.5768664832        12.0052547609         9.1269931259
H          0.6168765393        10.3695009485         9.7479887784
O          1.0520205744        14.9632440921         9.2229653652
H          0.0831949064        14.8243713980         9.3322195349
O         -0.5450897784        12.8078171737         9.9177491706
O          3.8937658656        14.3532620037         8.6602987621
C          3.3225597931         9.6948495660         9.4071684685
C          2.7477537204         8.5472716238        10.0849228114
H          4.3692757359         9.7379338077         9.2059991476
C          1.6203347102         8.2575245614        10.7903552523
H          3.4259764832         7.7210428204        10.1016294237
O          1.6866341409         6.9775294687        11.4670380340
H          0.8320128316         6.5115392853        11.5090623219
O          0.5523280847         8.8913463119        10.9300315021
C         -1.3521079346        11.7179660553        10.3499214167
H         -1.5902772694        10.9358449067         9.5729497853
H         -0.8316936067        11.0994612428        11.1101214285
H         -2.2710660064        12.1457479230        10.7083360358
C          3.4785440365        15.6716575913         8.1517256584
H          2.8358035036        16.2085484505         8.8400883253
H          4.3693840344        16.1921060982         7.8568011818
H          2.7747927772        15.4580523980         7.3083520714
          28
ANG Step:        610 Time:    12608.9417788972
C          1.6083918829        13.6814357969         9.3320068965
C          2.9746743169        13.4817145235         9.1138853725
C          3.5297837479        12.1666589030         9.2204793700
C          2.6845027341        11.0962799208         9.3704729736
C          1.3225721727        11.3559462039         9.4833818155
C          0.7620000857        12.5659843793         9.6798137057
H          4.6189135625        12.0891948290         9.1791503196
H          0.8275521290        10.4439748565         9.8366564087
O          1.0723160704        14.9731790823         9.3333648936
H          0.1214790541        14.8143493382         9.2277089150
O         -0.5314604206        12.8844576780         9.9450187346
O          3.8439132043        14.3782072758         8.6201158891
C          3.2318698370         9.6963641756         9.4402192918
C          2.8018799956         8.5112256888        10.0893116463
H          4.1463331483         9.5654927192         8.9001432746
C          1.6451202601         8.2923934235        10.8407154543
H          3.5622603598         7.7851043265         9.9743465733
O          1.6988494937         7.0004558427        11.4298485742
H          0.8386002451         6.7060474716        11.7132173993
O          0.4837509866         8.8173727058        10.9421713754
C         -1.4058258553        11.7513236533        10.3296860047
H         -1.5654203454        11.0336891189         9.4491741883
H         -0.8732522911        11.0890895500        11.0767334850
H         -2.3423624152        12.1550099209        10.7098214559
C          3.5561137295        15.6897441684         8.1170456994
H          3.2025929397        16.3059290963         8.9568305426
H          4.4887032769        16.0289273224         7.6849872939
H          2.6877401184        15.6546033526         7.4014487251
          28
ANG Step:        620 Time:    12815.6457424857
C          1.6082969702        13.6843335877         9.3376625418
C          2.9406555488        13.4968718127         9.0897333334
C          3.5555115906        12.2249992461         9.2052065189
C          2.7092918552        11.1225715801         9.3896426617
C          1.3307648220        11.3213935978         9.4743675933
C          0.7558586693        12.5816587488         9.7014932944
H          4.6292210043        12.1930186902         9.1357423740
H          0.7666188324        10.4151353514         9.6782550395
O          1.0674604181        15.0074479933         9.3475567904
H          0.0873410071        14.9450181835         9.3195200588
O         -0.5217726799        12.8742820439         9.9573912655
O          3.8200673817        14.3717994497         8.6215628604
C          3.2202034516         9.6696674373         9.4369681129
C          2.8269952652         8.5158741263        10.1177594736
H          4.0891965952         9.5959184049         8.7552103031
C          1.6065348931         8.2709364649        10.8334590327
H          3.4239214458         7.5500261787        10.1030882874
O          1.7122582573         7.0078330235        11.4057343409
H          0.8715105392         6.8417112192        11.9174777152
O          0.4917039702         8.8125423345        10.9427622390
C         -1.3815216488        11.7910252629        10.3032259517
H         -1.5889999386        11.1274435175         9.5140566676
H         -0.8841598334        11.1766413008        11.0042225601
H         -2.3313198913        12.1926573681        10.6517354485
C          3.5768466089        15.6738043267         8.1315019548
H          3.2647180365        16.3592000296         8.9154126289
H          4.4674768921        16.0438841892         7.6083920403
H          2.7151783580        15.6390947723         7.5050523801
          28
ANG Step:        632 Time:    13063.6904987918
C          1.5311183913        13.7310779276         9.3678619780
C          2.9158901258        13.5167822792         9.0482836286
C          3.5593731446        12.2460663055         9.1992188242
C          2.7759978412        11.1082944768         9.4109075132
C          1.3174276122        11.2709942020         9.4982998379
C          0.7905960130        12.6307015786         9.6902283777
H          4.6466277586        12.2375153359         9.0643972311
H          0.6317014425        10.4135370402         9.4204288176
O          1.0736701638        15.0274259275         9.3604154149
H          0.1116733046        15.0297361184         9.4569239910
O         -0.5107816075        12.8710822425         9.9676243980
O          3.8124377190        14.3714866230         8.6266187344
C          3.2343484476         9.6661745017         9.4098194267
C          2.8333379104         8.5336465389        10.1547497625
H          4.0196802629         9.5473806364         8.6998940026
C          1.5705406741         8.2149027136        10.8202298382
H          3.2956074895         7.5967597656        10.1611204869
O          1.7242071731         7.0018174737        11.3929825892
H          1.0043458439         7.0701987422        12.0467842862
O          0.4970373856         8.8326418878        10.9409395584
C         -1.3574799493        11.8252230303        10.2807768743
H         -1.6180118137        11.2214419483         9.3373557262
H         -0.9157087364        11.2158561827        11.1248875596
H         -2.2695469967        12.3015499820        10.6412826206
C          3.5758030617        15.6726323996         8.1496035935
H          3.4224127216        16.3994867228         8.9572665438
H          4.4408866167        15.9635265545         7.5647231116
H          2.6946487382        15.6343214633         7.4511369157
          28
ANG Step:       1114 Time:    23026.8215437565
C          1.6977556012        14.0638216510         9.3635275276
C          3.0446575238        13.7705375444         9.1207838793
C          3.4792524190        12.4290142027         9.2092456829
C          2.6821917514        11.2151212470         9.2443451141
C          1.3757139342        11.5508285784         9.5985799911
C          0.9375421630        12.9182065693         9.6937746750
H          4.5100021653        12.2188044577         8.9945189592
H          0.6746091732        10.7473142261         9.7996298170
O          0.9876556680        15.2514059030         9.1976023033
H          0.0908801791        15.1599726713         9.5366245232
O         -0.3087462576        13.1755591286        10.0704417505
O          3.8995763588        14.6906299931         8.7417271962
C          3.2763395231         9.9333459936         9.0835590693
C          2.6533506896         8.8442611617         9.7490057126
H          4.3249698236         9.8924398489         8.9133521666
C          1.6343249891         8.6544330960        10.7680255243
H          3.0187495917         7.8650901303         9.5538155017
O          1.3058990770         7.2917389982        10.9276776416
H          0.7945354481         7.2048343778        11.7292401913
O          1.1269888277         9.5205546343        11.4156441620
C         -1.1684732601        12.2631645892        10.6108822817
H         -1.4157725787        11.4790013598         9.8405246883
H         -0.7005121313        11.7782406601        11.5374208044
H         -2.1095354773        12.7512352178        10.8669628697
C          3.7185737679        16.0553008722         8.7195428459
H          3.2707932813        16.3714050836         9.6436017992
H          4.5649020420        16.6658531357         8.5541715337
H          2.9629795258        16.3753575284         8.0014628173
          28
ANG Step:       1138 Time:    23522.9110563688
C          1.6306079871        14.0350262347         9.3238835529
C          2.9787331509        13.8117847863         9.1210847485
C          3.5397179728        12.4219397878         9.2292604674
C          2.7521702496        11.3623444260         9.2165373819
C          1.3757952465        11.5861561123         9.5373663455
C          0.9279377065        12.9059918842         9.7158148534
H          4.5914135773        12.3946944030         9.0494124546
H          0.6961331718        10.7741730921         9.6993270379
O          1.0572899165        15.2890120705         9.2251168543
H          0.1187237898        15.0535710940         9.3838097858
O         -0.3535136680        13.2614266766        10.0346569943
O          4.0018449601        14.6460373012         8.7394747981
C          3.2375907510         9.9168473252         9.1281498848
C          2.6986471896         8.7790779449         9.7007911896
H          4.1148514409         9.7782293593         8.5443554838
C          1.6852055264         8.6505937898        10.7263704409
H          3.2061226024         7.9011826457         9.4422123695
O          1.2698829108         7.2918155884        10.9310417742
H          0.6062154881         7.4152680605        11.6579195264
O          1.1542779773         9.5966743740        11.4575498917
C         -1.2210036983        12.2287954806        10.6948824371
H         -1.5141926536        11.4064678744        10.0319171532
H         -0.6840647311        11.7980503729        11.5792923595
H         -2.0578034957        12.8371612296        10.9941838763
C          3.6313192005        16.1035024726         8.7736010977
H          3.1899632783        16.3452208140         9.6964051538
H          4.6417578364        16.4160035391         8.6745998030
H          3.0246260457        16.2712744447         7.8697301600
          28
ANG Step:       1145 Time:    23667.6038308808
C          1.6266554276        14.0225432383         9.3155558407
C          2.9812008691        13.8003809896         9.1163034662
C          3.5859407788        12.4759230121         9.2018639948
C          2.7665834063        11.3436586108         9.2306486497
C          1.3651319456        11.6017397766         9.5221650476
C          0.9029325189        12.9200002354         9.7140698113
H          4.6862045265        12.4539566804         9.1339116350
H          0.6679394657        10.7963268925         9.6716199735
O          1.0756223173        15.2901847348         9.2362024091
H          0.1154687546        15.1098358870         9.3438739243
O         -0.3766354084        13.2690438663        10.0291617117
O          4.0148402542        14.6331746797         8.7493085127
C          3.2076215032         9.9183438196         9.1543682619
C          2.7291403250         8.7692174589         9.6794911683
H          4.0107732683         9.7727244010         8.3889182435
C          1.6824003776         8.6552352954        10.7365387197
H          3.2271728709         7.8106908617         9.3935900261
O          1.2638989839         7.3168559367        10.9314438277
H          0.5891383507         7.4882518484        11.6078552437
O          1.1683402708         9.5960722147        11.4526124230
C         -1.2252669552        12.2281633624        10.7269675444
H         -1.5338735008        11.4742833012        10.0516908874
H         -0.6792220912        11.8224477796        11.5128823406
H         -2.1031439378        12.8036584817        11.0116702750
C          3.6214084797        16.1044265295         8.7789068261
H          3.1189446643        16.3741339120         9.7296264651
H          4.6726576801        16.4576673797         8.6961172841
H          3.0237743787        16.3013687924         7.8815008762
          28
ANG Step:       1158 Time:    23936.3189835458
C          1.6388228895        14.0291029706         9.3037443754
C          3.0496747703        13.7652610949         9.0889030714
C          3.6398935000        12.5234106827         9.1477134173
C          2.7788558548        11.3182753550         9.2842315019
C          1.3626997582        11.6373692427         9.4977080868
C          0.8367361193        12.9432015633         9.6990842470
H          4.7018776307        12.5031040183         9.2486909456
H          0.6797572505        10.8149244466         9.6037230103
O          1.1049997709        15.2808575833         9.2574698167
H          0.1289817288        15.2714701401         9.2919392372
O         -0.4373744657        13.2565996423        10.0328256473
O          3.9841411819        14.6442027578         8.7845124663
C          3.1994440173         9.9505801779         9.1542285417
C          2.7354935474         8.7275770655         9.6984451356
H          3.7618148360         9.8187924218         8.2668733592
C          1.7080554852         8.6711271708        10.7378881678
H          3.1072096047         7.8220515262         9.3234727238
O          1.2530199580         7.3859619038        10.9342567297
H          0.5067240995         7.4927378798        11.5826590185
O          1.2024584326         9.5729322014        11.4221276920
C         -1.2253308316        12.2658566651        10.7537088961
H         -1.5399823432        11.5043172921         9.9994426862
H         -0.5976469771        11.7864552675        11.5756468830
H         -2.1318338907        12.7396024640        11.1338280250
C          3.6491688505        16.0801062893         8.7865075555
H          3.0921792720        16.3511303505         9.6409850748
H          4.5247993782        16.7048628988         8.7508450774
H          3.0113167694        16.3767947102         7.9363074346
          28
ANG Step:       1167 Time:    24122.3525507754
C          1.6471348254        14.0264351525         9.3053695993
C          3.0800890141        13.7563173792         9.0659945367
C          3.6362915982        12.4641344091         9.1266137519
C          2.7797183708        11.3612629807         9.3281441856
C          1.3701767207        11.6608253819         9.4874527988
C          0.8115072125        12.9563668004         9.6746232600
H          4.7351165085        12.4674073102         9.2356239374
H          0.7087770716        10.8040889786         9.5508659126
O          1.1295228133        15.2833989756         9.2692291062
H          0.1640273802        15.2770052809         9.2869994085
O         -0.4872269376        13.2451657512        10.0419943621
O          3.9585205317        14.6941021199         8.8092159876
C          3.2109733855         9.9517026671         9.1428227809
C          2.7130045142         8.7322608416         9.7364630638
H          3.7274848005         9.8369562042         8.1560179017
C          1.7464147923         8.6700717584        10.7246671304
H          3.0157607823         7.7723895345         9.2282325697
O          1.2405074398         7.4307412175        10.9387431976
H          0.5125459422         7.4648264282        11.5473008480
O          1.2256228118         9.5654869701        11.3985072048
C         -1.2136805585        12.2830767286        10.7590096192
H         -1.5146554632        11.5310113596        10.0731553253
H         -0.6509115693        11.8161759984        11.5020873831
H         -2.0774818172        12.7489605407        11.2366447613
C          3.6700927293        16.0631699599         8.7846854802
H          3.0549931325        16.2957131072         9.6880218944
H          4.5176311826        16.7804090655         8.7824708357
H          3.0223322262        16.3274425892         7.9460058757
          28
ANG Step:       1178 Time:    24349.7269107228
C          1.6574206026        14.0106675273         9.3148629702
C          3.0668529972        13.7584369298         9.0458048665
C          3.6224684882        12.3761452285         9.1229150606
C          2.7687748285        11.4188661852         9.3689868030
C          1.3707215756        11.6849247922         9.4852380572
C          0.8044595116        12.9597162210         9.6394055184
H          4.6869243598        12.2943849749         9.0804695927
H          0.7470086458        10.8115817896         9.4984952139
O          1.1663079212        15.2973067903         9.2795276608
H          0.1895127292        15.1752451728         9.3251077741
O         -0.5236453703        13.2501161314        10.0400154769
O          3.9557326994        14.7545974925         8.8336526001
C          3.2304267897         9.9267545495         9.1297621459
C          2.7158467133         8.7696332143         9.7345743298
H          3.6854043093         9.8263255401         8.1806212792
C          1.7707654677         8.6607876808        10.7300724768
H          2.8663640507         7.8673670753         9.2221375863
O          1.2304610056         7.4498166306        10.9336873108
H          0.5000730101         7.5575156274        11.5833970560
O          1.2506092018         9.5884409979        11.3777727782
C         -1.2102692884        12.2893779049        10.7663434777
H         -1.6110625338        11.4470755468        10.1124133615
H         -0.5413910558        11.7748864021        11.5584402662
H         -2.0138539974        12.8197531264        11.2892877600
C          3.6608210788        16.0819397834         8.8000352925
H          3.0964829798        16.2823007944         9.6804505207
H          4.6084444345        16.6031320562         8.7945329152
H          3.0458301990        16.2396804674         7.9003889055
          28
ANG Step:       1339 Time:    27677.6607244973
C          1.6438975351        14.0654134732         9.4257456202
C          3.0543985037        13.8633565679         9.1384413254
C          3.5886306276        12.5441308937         8.9638051198
C          2.7970835048        11.4498638064         9.0648483740
C          1.3610121735        11.6214909118         9.2583336840
C          0.8629234493        12.9214828728         9.5887373342
H          4.6832380823        12.5608929659         8.7456318009
H          0.6958643462        10.7656663986         9.1692472195
O          1.1070779917        15.2866501626         9.7469221262
H          0.1644801273        15.0348139284         9.5900623071
O         -0.4581582579        13.2277266924         9.8602793436
O          4.0866892765        14.6940538087         8.9873318504
C          3.1842969279        10.0121041956         8.9679163463
C          2.6707731372         8.8888665503         9.6690258808
H          3.5744623106         9.7415215804         7.9635699949
C          1.7323990602         8.9929689494        10.7436763789
H          2.7174510146         7.8799517995         9.2071514513
O          1.2334979029         7.7847789290        11.0724314372
H          0.4541747645         7.9745943445        11.6469412678
O          1.3556498695        10.0526071103        11.2930552230
C         -1.1705279031        12.3752787767        10.8694752649
H         -1.9716565817        11.9258038208        10.3384209770
H         -0.5493927932        11.6163893651        11.2348822883
H         -1.5367937473        12.9973024035        11.6837558438
C          3.7999405849        16.1510267993         8.9258523144
H          3.5846656772        16.5241443466         9.9745298332
H          4.5584479734        16.8139049575         8.5143307822
H          2.8976654926        16.3952798457         8.3977750575
          28
ANG Step:       1345 Time:    27801.6831026503
C          1.6767351002        14.0502132533         9.4284865041
C          3.0387087841        13.8653482304         9.1447528892
C          3.5783690541        12.5338039026         8.9990823948
C          2.7850031839        11.4622931509         9.0185888862
C          1.3661363455        11.5962338692         9.2540096598
C          0.8624716618        12.9284455547         9.5902916700
H          4.6162648077        12.4536506885         8.7187472506
H          0.6668617775        10.7876347896         9.1906621065
O          1.1254549043        15.2837538285         9.7584795322
H          0.1583703524        15.0673130400         9.7057894018
O         -0.4404117617        13.2242882113         9.8515398279
O          4.0837231696        14.7084412416         8.9820542380
C          3.1562364292        10.0087823076         8.9601637445
C          2.6796789546         8.8812449496         9.6664313465
H          3.6013626238         9.8015822961         8.0000453883
C          1.7194661264         9.0035447227        10.7448435215
H          2.7512584359         7.9295444035         9.2285818993
O          1.2393991196         7.8009438985        11.0821306263
H          0.4711651561         7.9826891566        11.6158848825
O          1.3554875707        10.0832890406        11.2861884805
C         -1.1749077574        12.3751994568        10.8658808183
H         -1.9953207912        11.8909223229        10.3224465220
H         -0.5025434132        11.5680551741        11.2325424907
H         -1.4541745284        12.9998579135        11.6759258338
C          3.7886037158        16.1835176860         8.9388280344
H          3.6196737946        16.5307741038         9.9542948576
H          4.5981454911        16.7788676825         8.5485198805
H          2.8751222628        16.4321662244         8.3906741173
          28
ANG Step:       1382 Time:    28566.4877679277
C          1.7399785385        14.0196814223         9.5495205864
C          3.1162493675        13.8340167214         9.1645918375
C          3.5236444061        12.4079588771         9.0360907352
C          2.6464823678        11.3507123932         8.9875196900
C          1.2736841915        11.6333645632         9.2658166335
C          0.8978250379        12.9516578770         9.5495630583
H          4.6261905858        12.3399498806         9.0601629408
H          0.4724630808        10.9323369391         9.0765090111
O          1.2787827969        15.2750221196         9.7886115649
H          0.5329551691        15.0748689404        10.3932326677
O         -0.4004317134        13.1642833158         9.8521971981
O          3.9353566523        14.8643669493         8.9637718338
C          3.1511571564         9.9692070930         8.7601979975
C          2.6552049766         9.0131168590         9.6041509451
H          4.1221675194         9.7545382112         8.2866688197
C          1.7368486058         9.1311113425        10.7219974168
H          3.1124845468         8.0124538539         9.6322239152
O          1.2230423193         7.8813100217        11.1824206565
H          0.6128386365         8.1678412676        11.8602314596
O          1.3355375132        10.1932867748        11.2156196462
C         -1.0612948622        12.3686636199        10.7736513688
H         -1.9769821604        12.0659396314        10.3104815788
H         -0.5596287194        11.5015225648        11.0894089050
H         -1.3145478112        12.9620785995        11.6576538965
C          3.7614037565        16.2463104357         9.0206763997
H          3.5562675461        16.6766974954        10.0502606111
H          4.6367004823        16.7775256984         8.6250274090
H          2.9490996100        16.6323306111         8.4205656198
          28
ANG Step:       1397 Time:    28876.5437133104
C          1.8104283185        14.0220759723         9.5698296889
C          3.0508728983        13.7946324736         9.2017701059
C          3.5445182118        12.4206771421         9.0055791934
C          2.6769932373        11.3477350318         9.0051629413
C          1.2524025336        11.6140266948         9.2237764802
C          0.8731041338        12.9579078458         9.5661709731
H          4.6156726129        12.1335035491         8.9898773395
H          0.4121236197        10.9396544303         9.0607655831
O          1.3348704919        15.2910603070         9.8223010571
H          0.5890304724        15.2397887352        10.4593632093
O         -0.3912150628        13.2030765451         9.8292307827
O          3.9133511403        14.8348678484         8.9624419040
C          3.1562870021         9.9635472547         8.6972300518
C          2.6538176586         9.0036376959         9.6126180004
H          4.1854613743         9.9535620107         8.3068718794
C          1.7379324884         9.1286920363        10.7023549888
H          3.1716996646         7.9945728874         9.6091766931
O          1.2313799644         7.9705898152        11.2130940319
H          0.7684780445         8.2414890004        12.0092506352
O          1.3059860114        10.2411508692        11.1907193759
C         -1.0639191008        12.3394141046        10.7796518185
H         -1.9930810017        12.0518146111        10.2556433240
H         -0.4654373094        11.4268210463        10.9904817433
H         -1.2261415562        12.9182652414        11.7548317447
C          3.7246531914        16.3129429069         9.0411992471
H          3.5272531160        16.5126094470        10.1056544344
H          4.7021953287        16.7835850049         8.7490092970
H          2.8571276703        16.6071182375         8.4449018178
          28
ANG Step:       1409 Time:    29124.5884696166
C          1.7474783293        14.0253338995         9.6074031336
C          3.0925119100        13.7835691866         9.2033178091
C          3.5522161627        12.4365819886         8.9924125788
C          2.6803548200        11.3538190186         8.9870252222
C          1.2743674498        11.6358643990         9.1923518422
C          0.8986712609        12.9153898325         9.5713258602
H          4.5731503534        12.2187501812         8.7866913791
H          0.5581263526        10.8526983356         8.9952788142
O          1.3816392399        15.3136432672         9.8539298750
H          0.6029692265        15.3284932500        10.4292133041
O         -0.4078315002        13.2600945986         9.8255088187
O          3.9224931439        14.7934294615         8.9557951048
C          3.1341308512         9.9795688907         8.7132071609
C          2.6864712046         8.9642185740         9.6208052874
H          4.1143753027         9.9253168834         8.2684319971
C          1.7423940434         9.1655927492        10.6640582103
H          3.0797789608         8.0064049341         9.4807605997
O          1.2420568580         8.0387249528        11.2403198292
H          0.8749220859         8.2819257300        12.1279543482
O          1.2833059293        10.2679770321        11.1651537970
C         -1.0754537309        12.3023566734        10.7811818722
H         -2.0725544367        12.0731175252        10.3996037336
H         -0.3940750012        11.4578232876        10.9200372020
H         -1.2098368266        12.8337207232        11.6733677438
C          3.6796186728        16.3297508161         9.0822249666
H          3.4830407842        16.4676938386        10.1190445164
H          4.6552853125        16.6044145869         8.7703331476
H          2.8478507019        16.5885600771         8.4227204631
          28
ANG Step:       1421 Time:    29372.6332259228
C          1.7086866121        14.0016494978         9.6311846114
C          3.1135664398        13.7941939157         9.2070939909
C          3.5511847325        12.4415903849         8.9746268134
C          2.6721444639        11.3861888171         8.9528567866
C          1.3339143821        11.6446525183         9.1631289981
C          0.8928955760        12.9156218574         9.5808659397
H          4.5969129006        12.4400392975         8.5695916817
H          0.6610065749        10.8400115029         8.9088180809
O          1.4186078810        15.3376838512         9.8917461685
H          0.5606292213        15.3308756872        10.3442384934
O         -0.4386436502        13.2925992758         9.8416258482
O          3.9492682758        14.7681044858         8.9478880254
C          3.1065277000         9.9854599685         8.7819270279
C          2.7243559045         8.9584562534         9.6058644791
H          3.9776255428         9.7550248257         8.1332488245
C          1.7355348270         9.2256233522        10.6462102096
H          2.9702031808         7.8729244481         9.3888070828
O          1.2568444337         8.0852655985        11.2698185239
H          0.9706987601         8.3886382388        12.1468353385
O          1.2773141754        10.2843060339        11.1207651260