          28
ANG Step:       1069 Time:    22096.6537076083
C          4.5367577295        12.0874516020         2.6591114032
C          4.0498980124        11.3943770433         3.8129315542
C          5.0394479651        11.0205539026         4.8243239628
C          6.3722419192        11.3526989942         4.7003532328
C          6.8474906314        11.8203784685         3.4670392373
C          5.9110510176        12.2845394433         2.4699672258
H          4.6501578925        10.6886214449         5.7957897783
H          7.8987633506        11.8237803428         3.2424944098
O          3.6248374592        12.5708885436         1.8127623478
H          4.1332911698        13.1431949164         1.1817637373
O          6.2609037942        13.0938586084         1.3506678739
O          2.7159192275        11.2229318685         3.8639798423
C          7.2893902590        11.2570917516         5.8635812150
C          8.0101434158        12.3025849729         6.4215638273
H          7.2808266015        10.2302508811         6.3514924269
C          7.9883425458        13.5825408144         5.7126142385
H          8.7109680810        12.1374487923         7.1972192017
O          8.8543272259        14.5889060343         6.1695741832
H          8.8567918522        15.2312461271         5.4205389054
O          7.2071712586        13.8159969255         4.7682613806
C          7.4812563085        13.9265680626         1.4420079661
H          7.1757262576        14.9552518591         1.1578574724
H          7.8426559830        13.9473482875         2.5250863905
H          8.2203649148        13.5278062728         0.7246749557
C          2.1292596172        10.6493015212         5.1846164654
H          2.7259325816         9.6821858283         5.4120344458
H          2.3105013898        11.5453521168         5.9666234489
H          1.0634863118        10.5321780537         4.9322951309
          28
ANG Step:       1079 Time:    22303.3576711968
C          4.5415181495        12.0990735786         2.6537556509
C          4.0625180884        11.4056762567         3.8118077551
C          5.0191172776        11.0221303636         4.7692017838
C          6.3618580197        11.3482284410         4.7246205993
C          6.8563850951        11.7902381480         3.4722033108
C          5.9339687409        12.2579471287         2.4681499537
H          4.7021239058        10.8305050075         5.7884004786
H          7.9418215759        11.8949409558         3.3717819596
O          3.6492871782        12.6044301745         1.8492928749
H          4.0091548654        13.1549535557         1.1553968580
O          6.2350406005        13.0516516823         1.3426137193
O          2.7120088656        11.2215114081         3.8979007130
C          7.2973916092        11.2257347316         5.8534500808
C          8.0133698513        12.3093498021         6.4072702831
H          7.2260646353        10.2960627544         6.3150293491
C          7.9977017814        13.5733868189         5.7209911416
H          8.7221955576        12.2362172121         7.2687465482
O          8.8073729412        14.6050949616         6.1846128340
H          8.8596174644        15.3018257763         5.5263890849
O          7.2105350636        13.8032306038         4.7505493754
C          7.4773072049        13.9560667366         1.4591048577
H          7.1071601622        14.9737923507         1.1894506712
H          7.8408105085        13.9331601924         2.4447922025
H          8.2389493517        13.5914082231         0.7819993382
C          2.1491204435        10.6707905692         5.2043316528
H          2.6458213016         9.8275814771         5.5387567640
H          2.1947952375        11.4065686848         5.8824041051
H          1.1133460334        10.4793858575         4.9808869348
          28
ANG Step:       1088 Time:    22489.3912384264
C          4.5740229271        12.1008135679         2.6622143627
C          4.0701799424        11.4117367581         3.8061506002
C          4.9986110665        11.0337983343         4.7541582845
C          6.3461604494        11.3363830437         4.7303469465
C          6.8577179124        11.7826627580         3.4485293023
C          5.9594386587        12.2450200298         2.4717078969
H          4.6714171861        10.8633680315         5.7633936629
H          7.9190483179        11.9453123972         3.4242203123
O          3.6468739749        12.6410297229         1.8676949714
H          4.0205274653        13.1716052905         1.1226770577
O          6.2313768465        13.0143971577         1.3478135545
O          2.7166826978        11.2122911702         3.9462071383
C          7.3081325927        11.2089263359         5.8582195753
C          8.0194339107        12.3235391529         6.3824927546
H          7.2588936647        10.2241324386         6.4080864342
C          7.9963809615        13.5637689395         5.7355021590
H          8.6401309638        12.2633625146         7.2494113384
O          8.7678613818        14.6082835555         6.2030425281
H          8.7854213577        15.3580589528         5.5696765815
O          7.2182000018        13.7975241597         4.7312603463
C          7.4405252209        13.9669089626         1.4638846993
H          7.0839654160        14.9290403869         1.2162902500
H          7.8576454204        13.9510393562         2.5519870955
H          8.2409540936        13.6399467203         0.7778029154
C          2.1702545943        10.7020616806         5.1779533081
H          2.6802709497         9.7846295963         5.6617199151
H          2.1320574815        11.5273722299         6.0457819085
H          1.1246213695        10.3923360994         4.9793785892
          28
ANG Step:       1101 Time:    22758.1063910915
C          4.6051892763        12.0990048769         2.6753438104
C          4.0662519990        11.4132189194         3.7953630033
C          4.9865838148        11.0606109074         4.8109211403
C          6.3373380862        11.3073801729         4.6984775592
C          6.8545255458        11.7854510866         3.4252954445
C          5.9790602683        12.2451948734         2.4726076749
H          4.5261440082        10.7371363726         5.7268969055
H          7.9274853889        11.9542100529         3.3142359615
O          3.6334317080        12.6985925233         1.8782125424
H          4.1661198999        13.1192415172         1.1948823974
O          6.2692328622        12.9767401698         1.3638280211
O          2.7457776366        11.2032716768         4.0091763738
C          7.3205574531        11.1906311327         5.8914094847
C          8.0140760129        12.3166736468         6.3394635973
H          7.4080182867        10.3172027508         6.4485847508
C          7.9597998169        13.5779994446         5.7239387889
H          8.5924790338        12.1952721836         7.2897196379
O          8.7200355721        14.6018464940         6.2380718972
H          8.5387277941        15.3209105564         5.5981266704
O          7.2433112081        13.7966690795         4.7104645801
C          7.3670610840        13.9408213082         1.4879447661
H          6.9901999007        14.9427420476         1.2140677494
H          7.7135728220        14.0138549946         2.4996841582
H          8.1307359730        13.6808831453         0.7652927817
C          2.1958518631        10.7482730460         5.1866254576
H          2.7363275530         9.9528847511         5.5672443901
H          2.1110662483        11.4682675357         5.8788384056
H          1.2298373873        10.3628993815         4.8973880475
          28
ANG Step:       1111 Time:    22964.8103546799
C          4.5727513439        12.1050492618         2.6727244892
C          4.0733307422        11.4016380364         3.8202734871
C          4.9831917829        11.0863168901         4.8723796760
C          6.3532263189        11.2725471703         4.6860659338
C          6.8572200913        11.7878166757         3.4256496533
C          5.9683446734        12.2523026175         2.4712820185
H          4.5412270476        10.5943514718         5.7425960681
H          7.9042698443        11.8727396445         3.2044111779
O          3.6466410479        12.7339802535         1.8880470729
H          4.2522260421        13.1320945072         1.2028586301
O          6.3139872960        12.9564648287         1.3718347124
O          2.7877834408        11.2197712224         4.0101925144
C          7.3150673872        11.1956081167         5.8960815041
C          8.0087592509        12.2984314072         6.3248818904
H          7.5056319725        10.2352288145         6.4705761898
C          7.9250824311        13.5823054993         5.7174990850
H          8.5648681913        12.1756700290         7.2140294692
O          8.6842328060        14.5966748573         6.2623651831
H          8.3703681365        15.2999326600         5.6706691912
O          7.2603762893        13.8094907216         4.6848751300
C          7.2942346613        13.9242612800         1.4925164232
H          6.8700766798        14.8913537090         1.2007055724
H          7.6578165208        14.0257596126         2.5695053152
H          8.0918226073        13.6636798675         0.7734581541
C          2.2042656110        10.7556218134         5.1951916490
H          2.8891639961         9.9126975526         5.5918728964
H          2.0747430805        11.6884977614         5.9498173039
H          1.2290241513        10.3726567088         4.8520829850
          28
ANG Step:       1123 Time:    23212.8551109861
C          4.5228568671        12.1162481848         2.6763542791
C          4.1190601088        11.3924216836         3.8829498187
C          5.0039315398        11.1064598061         4.9220556506
C          6.3826099053        11.2313753620         4.7085917736
C          6.8453220869        11.7808902799         3.4330811937
C          5.9205969364        12.2511150559         2.4878071638
H          4.7509588650        10.5666762336         5.8064405223
H          7.9076102101        11.7303108932         3.1772563129
O          3.6851070805        12.7685954980         1.8933364181
H          4.2036827702        13.2093568803         1.1834942151
O          6.3387694412        12.9100114316         1.3682236314
O          2.8217882973        11.2548550838         3.9728256620
C          7.2939440746        11.1721904655         5.8800639103
C          7.9974076505        12.2945662033         6.3126698009
H          7.5152616367        10.2311088605         6.2808651659
C          7.8973041519        13.5559769598         5.7318360308
H          8.6588500182        12.2063476346         7.2109318219
O          8.6349031371        14.5926984862         6.2848327516
H          8.2892173767        15.3987788340         5.8327749683
O          7.2692896809        13.8404611604         4.6377930435
C          7.2420248831        13.9370278428         1.5002011914
H          6.7431676142        14.8654536434         1.1736493301
H          7.6045829449        14.0359498602         2.5203991901
H          8.0941920724        13.7099625632         0.8663213484
C          2.2207972776        10.7669420111         5.2271041472
H          2.7651121417        10.0207595832         5.6881634102
H          2.1018586210        11.5494249946         5.8346608165
H          1.2540726571        10.3913423646         4.9345222369
          28
ANG Step:       1134 Time:    23440.2294709334
C          4.5378103465        12.1218502103         2.7094436601
C          4.1602168608        11.4143146333         3.9214528476
C          5.0689122492        11.1053145725         4.9497154800
C          6.3972565130        11.2238780333         4.7231960735
C          6.8184974407        11.7538644000         3.4522825587
C          5.8724872230        12.2403425422         2.5179646388
H          4.8337365450        10.6503635771         5.9309140923
H          7.8623695107        11.6632291686         3.2130120889
O          3.6996062438        12.7977077518         1.8886606561
H          4.1962388419        13.2490833676         1.2060366476
O          6.3259597765        12.8383529701         1.3551918440
O          2.8215714831        11.2739289194         3.9508979458
C          7.2884076903        11.1479144963         5.8563653275
C          7.9869080888        12.2830074139         6.3204776766
H          7.5770825291        10.0957068903         6.1556857009
C          7.8698180463        13.5543272170         5.7131064832
H          8.6746662050        12.2416238134         7.1229048767
O          8.5859119760        14.5862738552         6.3088700986
H          8.2763862635        15.4348264460         5.9816005695
O          7.2784021552        13.8652188711         4.6091353608
C          7.2275733673        13.9787626657         1.5057371883
H          6.6844220115        14.8930383201         1.1443650015
H          7.5517993637        14.1104499879         2.5551346695
H          8.1315035898        13.8206476310         0.8914638733
C          2.2317067686        10.7773035199         5.2155843043
H          2.7795055766         9.9490966693         5.8245484032
H          2.1135880299        11.7142517913         5.9770444179
H          1.2253718932        10.3848085683         4.9874871389
          28
ANG Step:       1145 Time:    23667.6038308808
C          4.5635716311        12.1395400478         2.7522995402
C          4.1597992446        11.4579685380         3.9369476264
C          5.1147942678        11.0840249348         4.9754897569
C          6.4122091207        11.2478426146         4.7193875364
C          6.7829138888        11.7151586649         3.4719757488
C          5.8885191483        12.2282075170         2.5403767452
H          4.7607978252        10.8345588185         5.9471140427
H          7.8377483472        11.7026495501         3.2093078007
O          3.6928273531        12.8111881937         1.8950514884
H          4.3289023199        13.2408726437         1.2435868170
O          6.3083761881        12.7709748250         1.3435965148
O          2.8164587558        11.2721101637         3.9652568979
C          7.3265939500        11.1066561177         5.8544425448
C          7.9637487123        12.2712977553         6.3127962063
H          7.6786419570        10.1358237117         6.0586082627
C          7.8443836613        13.5734625946         5.6704816804
H          8.7020343128        12.2182676587         7.1460639998
O          8.5404931006        14.5700525361         6.3460029681
H          8.2167380958        15.4237115640         6.0135668101
O          7.2863599093        13.8801213815         4.5955082708
C          7.2162497008        14.0201247479         1.5105403170
H          6.6685901943        14.8901047184         1.1406066700
H          7.4290488757        14.1936636911         2.5822962430
H          8.0923247933        13.8975611918         0.8887859469
C          2.2365271847        10.8102069357         5.2256057648
H          2.8010231963        10.0568847720         5.6578054477
H          2.1747349385        11.5933683111         5.8398871055
H          1.2583594854        10.4446059396         4.9703165741
          28
ANG Step:       1156 Time:    23894.9781908281
C          4.5528054150        12.1816225253         2.7801528984
C          4.1262925618        11.4972626744         3.9593380053
C          5.0881652326        11.0729253705         4.9735592566
C          6.4300388466        11.2644772451         4.7460504440
C          6.7799684777        11.6848990330         3.4545377037
C          5.9507715768        12.2142536913         2.5409351977
H          4.6760016423        10.9591501829         5.9921335467
H          7.8222826988        11.7843866362         3.2064517342
O          3.7012427404        12.8055802101         1.9185364537
H          4.3775747988        13.1584995329         1.3186021032
O          6.3076845487        12.7347799793         1.3385626882
O          2.8246245169        11.2671452588         3.9979546862
C          7.3903550625        11.0782451998         5.8551647593
C          7.9471141995        12.2811772935         6.2916107382
H          7.8547028600        10.0792385801         6.0543930663
C          7.8421636407        13.5679298556         5.6583172468
H          8.6089396672        12.2067996101         7.1222723505
O          8.4947622978        14.5534643691         6.3904377071
H          8.1620217390        15.3761242643         5.9718221509
O          7.2821910881        13.8959002775         4.5750644335
C          7.1803372727        14.0398567907         1.5161161026
H          6.5549379922        14.8808070728         1.0848345652
H          7.3582997890        14.1974948769         2.5755720846
H          8.0763159351        13.8762650826         0.8985934802
C          2.2391933151        10.8366027292         5.2009844298
H          2.9329165020         9.9817893922         5.5533390870
H          2.1996011810        11.7814414828         5.9628933992
H          1.2241477225        10.4919981255         4.9270345383
          28
ANG Step:       1168 Time:    24143.0229471343
C          4.5487570099        12.2294003352         2.8058313005
C          4.1038708761        11.5288688280         3.9931424914
C          5.0185727422        11.0982668781         4.9596990045
C          6.4171758801        11.2458745015         4.7928734307
C          6.8348987806        11.6597173163         3.4220440640
C          5.9681866104        12.1922595378         2.5219437479
H          4.7060886073        10.9365875712         5.9670308788
H          7.8914562070        11.7929275106         3.2330035670
O          3.7302551085        12.7842623555         1.9600797635
H          4.3225959493        13.1261922414         1.2324034769
O          6.3316260613        12.7394950806         1.3355551866
O          2.8291703901        11.2794456760         4.0205579871
C          7.4628302737        11.0563519645         5.8445736179
C          7.9410171877        12.2992356769         6.2629288414
H          7.9835792362        10.1308416684         6.0326212504
C          7.8508156478        13.5430774045         5.6654328259
H          8.5576272280        12.2851082462         7.1751590727
O          8.4384192796        14.5420813733         6.4358427208
H          8.1845254124        15.3265415985         5.9406720004
O          7.2750506302        13.9144382468         4.5604742237
C          7.1062775224        14.0299579471         1.4982118542
H          6.5104722133        14.7750298331         1.0683515331
H          7.3400151656        14.1790817460         2.6055156294
H          8.0342442408        13.8540156820         0.9665315548
C          2.2494017798        10.8636374571         5.2013253739
H          2.7607318685        10.0246332326         5.5769328245
H          2.2353267495        11.5842239229         5.8996483649
H          1.2520372308        10.5598963063         4.9667617539
          28
ANG Step:       1202 Time:    24845.8164233351
C          4.6767328662        12.2304096533         2.8441055544
C          4.1265569897        11.5979016623         4.0345940100
C          5.0552249819        11.1850625679         5.0310896827
C          6.4309473125        11.1600324140         4.6964805481
C          6.8629001085        11.6236893600         3.4624517623
C          6.0614380327        12.1137566910         2.5131570605
H          4.6612266616        10.5932740122         5.8503056356
H          7.9197657598        11.4873262036         3.2447862991
O          3.7483322366        12.7551733357         2.0385607177
H          4.2684674305        12.9150233984         1.1923795474
O          6.3382300753        12.7219389325         1.3287636770
O          2.7829065313        11.3867165381         4.0273111191
C          7.4710282225        11.0681114829         5.7394330065
C          8.0408413977        12.2865011084         6.2475706780
H          7.7114558651        10.1122643220         6.1253331551
C          7.8218722154        13.5699266702         5.6941077128
H          8.6776013272        12.2151737106         7.1460393674
O          8.2706797474        14.5582081876         6.5331373864
H          8.3998205389        15.3652215374         6.0324246712
O          7.2893017356        13.9371070333         4.5899805143
C          6.9816812644        14.0200124449         1.4627240488
H          6.2634948977        14.7983102926         0.9279771165
H          7.0789407872        14.2620077807         2.4624115671
H          7.9480076458        13.9918518134         0.9454733047
C          2.1596640409        10.8431085458         5.2963638130
H          2.6134811199         9.8236665565         5.4864536144
H          2.3976197906        11.6713485799         6.1279362006
H          1.0661250481        10.8246807307         5.0513253395
          28
ANG Step:       1212 Time:    25052.5203869236
C          4.6618593611        12.2042937924         2.8412199432
C          4.1358129760        11.5901289246         4.0661703839
C          5.0746754515        11.1779671945         5.0201025050
C          6.4372627776        11.1670691236         4.7087129204
C          6.8747988195        11.5974383357         3.4466164556
C          6.0718238131        12.1270643390         2.5069473279
H          4.7998023598        10.7001948219         5.9624698792
H          7.9201898942        11.4902937059         3.2400635336
O          3.7667322170        12.7457043736         2.0507657625
H          4.2626578347        12.9386885142         1.2450815166
O          6.3247338501        12.6748455382         1.3208784798
O          2.7840922479        11.4216577385         4.0545563064
C          7.4645043530        11.0827072382         5.7184623237
C          8.0527256635        12.2548034409         6.2214426793
H          7.6066087419        10.0976941441         6.2202975261
C          7.8163751756        13.5785362539         5.7292395911
H          8.7065497774        12.1227500319         7.0704071193
O          8.2345393673        14.5803524655         6.5726503690
H          8.3795436568        15.3696588193         5.9988145235
O          7.2924296517        13.9330173458         4.5951858634
C          6.9576995126        14.0772016080         1.4353073117
H          6.2880327751        14.6951812463         0.9420238176
H          7.0948769138        14.2970878156         2.5662989513
H          7.9349537189        13.9993074292         0.9630123233
C          2.1465227568        10.8748673416         5.2972346304
H          2.5060509393         9.8888727179         5.4095351698
H          2.3842544792        11.4164266322         6.1152779882
H          1.0992774917        10.8446518611         5.1401932097
          28
ANG Step:       1224 Time:    25300.5651432297
C          4.6501479185        12.1484005433         2.8734298048
C          4.1432600701        11.5756242269         4.0851622753
C          5.0895780505        11.1551136280         5.0150992817
C          6.4177567802        11.2014041120         4.7212717903
C          6.9201586839        11.5472100467         3.4021615285
C          6.0009757440        12.1433868812         2.5195880019
H          4.8931896687        10.9456507153         6.0543417959
H          8.0008080118        11.5388275688         3.2213957485
O          3.7866049824        12.7380323090         2.0483090362
H          4.2593212087        13.0364997800         1.2396780043
O          6.3349724615        12.6521043242         1.2929532521
O          2.7907508284        11.4659386795         4.1149153291
C          7.4836715306        11.0824732315         5.7262201268
C          8.0466580512        12.2169113438         6.1897502268
H          7.6074951993        10.1853390126         6.2411382354
C          7.7963118708        13.5896798686         5.7372594813
H          8.7401588204        12.1047066852         7.0496341325
O          8.2024125037        14.6097460089         6.6218823431
H          8.2766863180        15.3367505824         5.9852001709
O          7.3087089535        13.9166758778         4.6298754715
C          6.9362863584        14.0945477003         1.4345218521
H          6.1945560400        14.8008280543         0.8355395828
H          7.0478269073        14.3464332348         2.4294393077
H          7.8982189501        14.0489389265         0.9280130707
C          2.1540925052        10.9043282799         5.2552498857
H          2.4301980591         9.8084705251         5.3605266554
H          2.4611146454        11.3793056731         6.3129371451
H          1.0317330568        10.9444418093         5.1378322816
          28
ANG Step:       1234 Time:    25507.2691068182
C          4.6331595792        12.1114376383         2.8873291336
C          4.1353298894        11.5558932205         4.0917081115
C          5.0876895809        11.1374595141         5.0324827499
C          6.4333889222        11.2319595621         4.7063198465
C          6.9284539222        11.5173495964         3.3532640806
C          5.9674794765        12.1313432196         2.5450524856
H          4.8289024755        11.1243431549         6.0972309423
H          7.9886821195        11.5621500139         3.1846738874
O          3.7919174832        12.7316896018         2.0416321252
H          4.3178790857        13.0800989747         1.2857173827
O          6.3527881946        12.6670664541         1.2749423685
O          2.8059771664        11.5104119833         4.1733472634
C          7.4912698791        11.0644609390         5.7279869794
C          8.0525844308        12.2398791589         6.1896397562
H          7.6806977471        10.1005598694         6.2758344852
C          7.7888754966        13.5711870506         5.7585484635
H          8.7084721989        12.1589715358         7.0296735010
O          8.1791777935        14.6246360065         6.6522552672
H          8.1747857254        15.3854912003         6.0376655593
O          7.3191381914        13.9065049733         4.6555845053
C          6.8940252573        14.0807777335         1.3987712695
H          6.2857302126        14.7526415684         0.9053740623
H          6.9884820734        14.4162344731         2.5110812499
H          7.8598509751        14.0968967356         0.8816856341
C          2.1652215501        10.9100518992         5.2537756131
H          2.3455260815         9.8659499235         5.2653178692
H          2.4588485544        11.3252667174         6.1207857988
H          1.1408567299        11.1123186148         5.0781729692
          28
ANG Step:       1245 Time:    25734.6434667656
C          4.5999456816        12.0964578064         2.8676686564
C          4.1291587542        11.5261505888         4.1019711871
C          5.0831435486        11.1432886434         5.0571590310
C          6.4726690067        11.2344911891         4.6814801934
C          6.8892870253        11.5029416075         3.3178792072
C          5.9974380238        12.1029501702         2.5432987234
H          4.7526435811        11.1541315986         6.0784136984
H          7.9561216607        11.5405218184         3.0898591632
O          3.7878118340        12.7223754442         2.0370013291
H          4.4116495432        13.0518711628         1.3638392496
O          6.3611209269        12.7019806054         1.2816829747
O          2.8349669822        11.5706940891         4.2185229808
C          7.5024124523        11.0438161432         5.7324544940
C          8.0630639663        12.2782487060         6.2188855139
H          7.7309285655        10.1142249220         6.1466799796
C          7.7938701468        13.5587919722         5.7971408753
H          8.7040170485        12.2329528705         7.1258885732
O          8.1547731360        14.6232791679         6.6720101540
H          8.0437731200        15.4443378801         6.1504335566
O          7.3205666375        13.9012142575         4.6713615652
C          6.8592102003        14.0431078098         1.3839828180
H          6.1401108754        14.8102515608         0.8381733037
H          6.9444923180        14.3330829726         2.3674650337
H          7.8286670258        14.0999697813         0.8921274427
C          2.1644981940        10.9078729429         5.2464759131
H          2.2881185005         9.7767253347         5.1768148030
H          2.5473971351        11.4084633455         6.2786123398
H          1.1118745839        11.2697430455         5.0476475554
          28
ANG Step:       1256 Time:    25962.0178267129
C          4.5935113479        12.0869964402         2.8425521301
C          4.1582036606        11.5056615157         4.1009104078
C          5.1025060813        11.1776688740         5.0541457392
C          6.4878704994        11.2007615070         4.6760798220
C          6.8641384756        11.4836988800         3.3231348897
C          6.0120350920        12.0912022920         2.4844091765
H          4.7823343445        11.0056565060         6.1010087029
H          7.8897915571        11.4635949887         3.0080156437
O          3.7775622808        12.7138956242         2.0291569172
H          4.4353644497        13.0301490963         1.3307132633
O          6.3461844840        12.7200723388         1.3109946081
O          2.8520693033        11.6331626388         4.2455945278
C          7.5281649874        11.0795299127         5.7343269628
C          8.0740545379        12.2687324895         6.2866645435
H          7.8478644812        10.0181869135         5.9919403127
C          7.7951368906        13.5950819467         5.8106245117
H          8.6353903290        12.2563525238         7.1893884331
O          8.1324841193        14.6060359316         6.6890707342
H          7.8970087094        15.4169837267         6.2313707349
O          7.3171651984        13.8957715217         4.6898479007