          28
ANG Step:        390 Time:     8061.4545799507
C          4.4480683842        11.9178683925         2.1855429598
C          3.9418210767        11.3010256632         3.3141671073
C          4.7693477374        11.0950584515         4.5452334486
C          6.0890510466        11.6183601262         4.5325538094
C          6.6256705653        12.2554880186         3.3930438130
C          5.7822220981        12.5185019398         2.2464652321
H          4.3219710940        10.7018955392         5.4550877681
H          7.7105586573        12.4897223692         3.2714847478
O          3.7964208271        12.0243982106         0.9811255478
H          4.4690126195        12.4949616581         0.4672700347
O          6.1901849473        13.2930146492         1.2176768230
O          2.6139212246        10.8839836435         3.2187444429
C          6.8424077718        11.6423423788         5.8248610222
C          7.8994907359        12.4546733425         6.1154977012
H          6.6334959092        10.9525949678         6.6399975483
C          8.5842877184        13.5162402634         5.4495426060
H          8.3199191684        12.4036708671         7.1758183873
O          9.6531682786        14.0906067023         6.2044672649
H         10.0344746001        14.7912417484         5.6484191047
O          8.4764001104        14.0245665051         4.2522294972
C          7.3378572125        14.1911559115         1.5339120886
H          7.4184410243        14.7949326263         0.6222021398
H          7.0519048300        14.7184956203         2.4350773091
H          8.2042398443        13.5820652505         1.7373838930
C          1.9592112877         9.9985284465         4.2027898866
H          2.2668360212         8.9945582221         3.9763786741
H          2.1287197704        10.3047719071         5.2203626517
H          0.9269502967        10.1928642248         3.9841495900
          28
ANG Step:        506 Time:    10459.2205575770
C          4.4715375199        11.9960649962         2.2769829584
C          3.9528802323        11.3383752261         3.4083801578
C          4.7795788720        11.2034949248         4.5956841229
C          6.1453430263        11.6598721020         4.6536235956
C          6.6109839192        12.2509944610         3.4138117515
C          5.8116951643        12.4387895763         2.3159205289
H          4.4735661254        10.5907064981         5.4139285052
H          7.5822009787        12.7442424534         3.2758983916
O          3.6465155913        12.2507889113         1.2852595782
H          4.1445272857        12.3812619364         0.4817105662
O          6.2836690359        13.0978401840         1.1779793909
O          2.6826044324        10.9375394983         3.2829764453
C          6.8743335766        11.6248446720         5.9380197663
C          7.9535106938        12.4857757523         6.2200440153
H          6.5563396383        11.1052607291         6.8109632459
C          8.5814936247        13.5344433308         5.5311788419
H          8.4854905637        12.3671200500         7.2622723841
O          9.6405189372        14.0786911893         6.1266477954
H          9.9352668782        14.7203414894         5.4773020399
O          8.3619046404        14.0201136764         4.3731939540
C          7.2933331784        14.1333940965         1.3099156757
H          7.2033426490        14.6145694540         0.3235836014
H          7.0104827936        14.8182308625         2.0830209611
H          8.2828675425        13.8020334637         1.5004786026
C          2.0684064761        10.0139770262         4.1399094624
H          2.3930562671         9.0162634522         3.9641087807
H          2.2577065126        10.3085012057         5.1238192647
H          1.0338291422        10.1686390672         4.0625196236
          28
ANG Step:        516 Time:    10665.9245211655
C          4.4853644394        11.9711280737         2.3055047704
C          3.9929347830        11.3183315101         3.4133308215
C          4.7900801239        11.1619473680         4.5805312443
C          6.1221133902        11.6712162367         4.6508850588
C          6.5896718631        12.2839917406         3.4234918147
C          5.8012533665        12.4550600698         2.3239380204
H          4.3690767254        10.6824122924         5.4905420500
H          7.5962167722        12.6296015599         3.3282018313
O          3.6187319307        12.2835976578         1.2839643098
H          4.1334057681        12.3922544798         0.4411934241
O          6.3192021961        13.0821239590         1.1765742790
O          2.6653988529        10.9454625818         3.3030218594
C          6.8664167081        11.6678076076         5.9423697380
C          7.9654430209        12.4478227284         6.2653292617
H          6.4189785705        11.0705192406         6.7696854913
C          8.5977426936        13.5195551438         5.5221374395
H          8.4492881714        12.3378563554         7.1591067280
O          9.6389670051        14.0765906836         6.1304440940
H          9.9322571834        14.8026321481         5.5300433448
O          8.3309831065        14.0358263083         4.3684595749
C          7.3151143307        14.1265519703         1.2747734283
H          7.2011354602        14.6407771943         0.3286466566
H          6.9998117342        14.7941466906         2.1261042238
H          8.3765321105        13.8251179737         1.5397663281
C          2.0918331994        10.0012545316         4.1593795371
H          2.4131795398         8.9247081565         4.0324192648
H          2.2858128755        10.2449819015         5.2713879431
H          0.9677329357        10.1264820306         4.0075964295
          28
ANG Step:        530 Time:    10955.3100701894
C          4.5039758047        11.9760569419         2.2885421700
C          4.0137978566        11.2715401480         3.4346380953
C          4.8310746349        11.1053555391         4.5826667295
C          6.0648910791        11.6987664901         4.6587396679
C          6.5941315709        12.3022931818         3.4847082072
C          5.7941819127        12.5058693201         2.2965784359
H          4.2864819588        10.8330485352         5.4553306667
H          7.6723582992        12.3719557566         3.4650427418
O          3.5840625328        12.3184143723         1.2765957162
H          4.1334107816        12.4628672635         0.4900871806
O          6.3486163269        13.0368050844         1.1863449569
O          2.6794427570        10.9613978655         3.3266049782
C          6.8280304717        11.7199001751         5.9215332221
C          7.9926653823        12.4345852666         6.2811579915
H          6.3343016688        11.0586258525         6.5765034454
C          8.5781170234        13.4827696896         5.4817074094
H          8.4671113161        12.1842263695         7.3185368700
O          9.6672147413        14.0839948484         6.1569301377
H          9.9193013030        14.8798053785         5.6331542454
O          8.2789001566        14.0461006264         4.3785915752
C          7.3237649060        14.1256935280         1.2606818364
H          7.3341272714        14.6611236570         0.3432302953
H          7.0497974349        14.7929898538         2.0869593022
H          8.3071267952        13.7198248859         1.4179692364
C          2.1000984723         9.9787210968         4.2348168863
H          2.4647400105         9.0125656642         3.9673219626
H          2.2787243468        10.1559201650         5.2534377959
H          1.0701498191         9.9500482751         3.9382204871
          28
ANG Step:        626 Time:    12939.6681206387
C          4.4308908303        12.1550583356         2.3629834656
C          3.9679210588        11.4304488354         3.5155754468
C          4.8439365618        11.1523268511         4.6441039997
C          6.1485235301        11.7038708412         4.7032430786
C          6.6926442289        12.2563851523         3.4405690399
C          5.8325559927        12.4329867585         2.3319372173
H          4.3537325887        10.8089566529         5.5535398223
H          7.7613209634        12.4249561067         3.2528302693
O          3.6568689750        12.4190915854         1.2695737717
H          4.1627945134        13.0712369860         0.7084630102
O          6.2057645264        12.9786835577         1.1786368971
O          2.7229805897        10.8740552213         3.3620543386
C          6.8094539742        11.6983451027         6.0088997870
C          7.9777402835        12.4295688374         6.3188590365
H          6.3346093799        11.0482262740         6.8007013811
C          8.4611179369        13.5132964094         5.5797571480
H          8.4079351269        12.1927480979         7.2280964363
O          9.6439627077        13.9624368253         6.0581939613
H          9.9127842552        14.6361559500         5.4105591382
O          7.9792756622        14.1811597541         4.6438207190
C          7.3859234734        13.8012214897         1.2811793985
H          7.4474210533        14.4616892945         0.3504617956
H          7.2014948114        14.4660412495         2.1096013334
H          8.3871501303        13.3012138461         1.3533315402
C          2.4198016851         9.9427200363         4.3905504140
H          3.1822511803         9.1028864258         4.5364324020
H          2.2232977640        10.5907681765         5.3276459263
H          1.4776404707         9.4544333820         4.0852224414
          28
ANG Step:        636 Time:    13146.3720842272
C          4.4253668983        12.1389254291         2.3767329241
C          3.9637273656        11.4137598910         3.5082047842
C          4.7956107303        11.2120832191         4.6622952459
C          6.1814910620        11.6768884598         4.7048342969
C          6.7137733497        12.2508090148         3.4397413293
C          5.8351420958        12.4683576563         2.3381129828
H          4.3627250137        10.7920871293         5.5591703005
H          7.7607274720        12.3984869425         3.3460716285
O          3.6557362074        12.4345454100         1.2800556853
H          4.2500606255        12.9468757475         0.7217784706
O          6.2038048291        12.9903684363         1.1793773099
O          2.7476382918        10.8606145366         3.3681431049
C          6.8223539861        11.6600611496         6.0045592239
C          7.9291701003        12.4631327002         6.2995993970
H          6.4657484343        11.0275436782         6.7630675228
C          8.4665347796        13.5201904954         5.6003565361
H          8.4689474038        12.2730260563         7.3169224521
O          9.6472067138        13.9513496150         6.0271883818
H          9.9146748184        14.6675463772         5.4144464383
O          7.9475142506        14.1788280369         4.6938053064
C          7.3966597311        13.7727246039         1.2602676553
H          7.4078579933        14.3815849169         0.3962655621
H          7.2458003927        14.3914923779         2.1672443030
H          8.2852010739        13.1847248973         1.3957597486
C          2.4329784603         9.9444087834         4.4093904571
H          3.2330092696         9.2563697114         4.5439904564
H          2.1724263714        10.4693430503         5.2804098939
H          1.4987557598         9.4926796299         4.1197325978
          28
ANG Step:        770 Time:    15916.2051963128
C          4.5296974948        12.1437424014         2.4805343147
C          4.0323940978        11.4273163108         3.6375263293
C          4.7806600039        11.3623271767         4.7787640881
C          6.1068687047        11.7500799205         4.7364825962
C          6.6800703289        12.2250438063         3.4689488480
C          5.8182587410        12.5445895947         2.4348920446
H          4.2433899673        11.1971316250         5.6753909447
H          7.7618696151        12.3187670611         3.3976400558
O          3.6654558913        12.2741752978         1.4715565775
H          4.1806365127        12.7299857956         0.7657200421
O          6.2079908478        13.1438230491         1.2709473384
O          2.8555900058        10.8507263534         3.4783633000
C          6.9724544933        11.4314487582         5.9926478588
C          7.9831149568        12.3078251630         6.2269909005
H          6.9821206900        10.4084390866         6.3471945630
C          8.3240596453        13.6059054980         5.6677090841
H          8.6643712006        12.0107152367         7.0433418914
O          9.6345318997        14.0247637894         5.9699394176
H          9.7219306423        14.7935077498         5.3803858729
O          7.5784620288        14.2705402671         4.9515850970
C          7.4668336882        13.6696870735         1.1731897268
H          7.4326701894        14.4232160215         0.4502888004
H          7.8073829924        14.1235850487         2.1056698452
H          8.1778503460        12.9115383949         0.8798088306
C          2.2150714606        10.0674352378         4.5341529614
H          2.8567980502         9.3264849448         4.8279636397
H          1.9004041720        10.5896027018         5.3356414756
H          1.3557639706         9.6542342026         4.0703686296
          28
ANG Step:        778 Time:    16081.5683671836
C          4.5325895789        12.1363159424         2.5023264076
C          4.0292260302        11.4116742625         3.6150841510
C          4.8051680825        11.3637435516         4.7820612045
C          6.1163218881        11.7300026438         4.7391700866
C          6.6846150330        12.2453249091         3.5000646854
C          5.8301754897        12.5727325012         2.4498279357
H          4.2836233283        11.1346806519         5.7160044148
H          7.7654636624        12.2674528263         3.5195550242
O          3.6503567727        12.2655427185         1.4489792397
H          4.1447442636        12.6781959006         0.7335587590
O          6.1893370283        13.1278542682         1.2960505764
O          2.8432538073        10.8743118945         3.4849147976
C          6.9847112316        11.4367991758         5.9661960840
C          7.9959103006        12.2921438728         6.2031778452
H          6.9415891264        10.3935655673         6.3715177312
C          8.3382402458        13.5943036450         5.6922418980
H          8.6721506952        12.0693719580         6.9785351734
O          9.6272410350        14.0576110057         5.9652871792
H          9.7098133135        14.8593313239         5.4243725377
O          7.5589262481        14.2546856691         4.9656647236
C          7.4513470150        13.6452914206         1.1934093329
H          7.4320702258        14.5255573283         0.3928923293
H          7.7863883476        14.0491278882         2.1200554228
H          8.1804551955        12.8610475089         0.9093005024
C          2.2106667932        10.0942503856         4.5185929278
H          2.9295761483         9.2767752931         4.8867781468
H          1.9179103924        10.7519952570         5.4387773199
H          1.3396603831         9.6344626519         4.0344020539
          28
ANG Step:        794 Time:    16412.2947089252
C          4.4840637987        12.1144825511         2.4956952172
C          4.0377034515        11.4017719210         3.5946429017
C          4.8262095666        11.3591426785         4.8085059209
C          6.1516419148        11.6671435414         4.7631602557
C          6.6881704470        12.2731757612         3.6028638153
C          5.8468523834        12.5895757668         2.5182549865
H          4.5199945317        10.8868624240         5.7074277676
H          7.7760678031        12.3143040879         3.5104779656
O          3.6392368005        12.2494592141         1.4165295176
H          4.1136675965        12.6066269689         0.6725272481
O          6.1295699458        13.1065502611         1.3122270491
O          2.7901858188        10.9142047770         3.4872177610
C          6.9821550262        11.4631094657         5.8635252212
C          8.1023065221        12.2851201930         6.2173195819
H          6.8744288572        10.5097817274         6.4425000737
C          8.3318355890        13.5668025061         5.7189600756
H          8.7981901510        11.9235034650         6.9453768074
O          9.6011389614        14.1132611794         5.9584207909
H          9.6030488834        14.9883724873         5.5507588676
O          7.5267883811        14.2311388634         4.9780598752
C          7.4840788215        13.6323123405         1.2202010008
H          7.4496863780        14.4275482920         0.4459444408
H          7.7497241983        14.0184200493         2.1515788109
H          8.1445712294        12.8518024532         0.8907331444
C          2.2232264635        10.1469175028         4.5199088434
H          2.8616349082         9.4122333275         4.8781017397
H          1.9757564705        10.8068050652         5.2553574040
H          1.3702288648         9.7107762624         4.0943990362
          28
ANG Step:        804 Time:    16618.9986725137
C          4.4733021096        12.1148040065         2.4716707200
C          4.0321810281        11.4023593273         3.6158089820
C          4.8231591596        11.3316645405         4.8103388040
C          6.1603555005        11.6416728056         4.7661935700
C          6.6958080068        12.3019417955         3.6449077599
C          5.7966742389        12.5632860913         2.5638076661
H          4.5346011690        10.7059253644         5.6870784637
H          7.7401931206        12.3914931897         3.4361371366
O          3.6394127501        12.2374401453         1.4073966125
H          4.1875493584        12.5927536383         0.6604563186
O          6.1189993000        13.1087766090         1.3141906130
O          2.7634690290        10.9398272080         3.4734822013
C          7.0354285649        11.4863043117         5.8476680221
C          8.1610120703        12.2571844983         6.2394108563
H          6.8224433571        10.6445776682         6.4692159512
C          8.3248815966        13.5747092937         5.7105793601
H          8.8897672810        11.7641418125         6.9108842192
O          9.5735152565        14.1404973263         5.9579618344
H          9.4738547986        15.0596031268         5.6290600575
O          7.5157136993        14.2100976900         4.9849270899
C          7.4962213272        13.6228489195         1.2285623309
H          7.4680747941        14.4146221774         0.4412055685
H          7.8023670442        14.0958871275         2.2337120957
H          8.1783817716        12.8084248390         0.8820745647
C          2.2308389653        10.1840548041         4.5157831714
H          2.9536092866         9.3571432784         4.9256836409
H          1.8819927998        10.9263349865         5.4004378813
H          1.2651869289         9.7136557941         4.1333319024
          28
ANG Step:        815 Time:    16846.3730324610
C          4.4667715831        12.1038256171         2.4817081504
C          4.0067209377        11.4143832776         3.6384519524
C          4.8118194448        11.2644206798         4.8026561938
C          6.1735445228        11.6451000328         4.7678777735
C          6.6738290248        12.3478346785         3.6362566847
C          5.7405476331        12.5399215954         2.5689141922
H          4.4446863991        10.6468877337         5.5800864071
H          7.7388173060        12.4504910643         3.4322991897
O          3.6501074288        12.2272266603         1.3948835805
H          4.2398961520        12.5766162913         0.7074578849
O          6.1391175618        13.1184702038         1.3358059480
O          2.7499035669        10.9678250331         3.4591112213
C          7.1221288747        11.4947315214         5.8832378866
C          8.2049949073        12.2249296857         6.2417994718
H          6.7687708953        10.6936038258         6.5847017881
C          8.3422963848        13.5658505487         5.7118710096
H          8.9611195033        11.7621104334         6.8374219832
O          9.5338384909        14.1747391143         5.9576190308
H          9.3760110667        15.1105852979         5.7251695356
O          7.4993234713        14.1849962172         4.9869780268
C          7.4944176524        13.6153951139         1.2389591318
H          7.4910281553        14.3865876968         0.4496417131
H          7.8266081648        14.0772762132         2.1221060338
H          8.1783793298        12.8265192650         0.9747128379
C          2.2090963561        10.2202665573         4.5506357884
H          2.8751698564         9.5020638340         4.8654369515
H          1.9506888490        10.7893211808         5.3426047237
H          1.3409399737         9.7560142868         4.2008056567
          28
ANG Step:        828 Time:    17115.0881851260
C          4.4332654044        12.0751541330         2.5233318671
C          3.9710802944        11.4383905065         3.6495878596
C          4.8251584968        11.1748023829         4.7693880140
C          6.1961915592        11.6746025403         4.7999788891
C          6.6074390359        12.3927742871         3.5954927007
C          5.7514879879        12.5542722837         2.5180339746
H          4.3636980491        10.6461475803         5.6083218405
H          7.6680795569        12.4904829089         3.4835607394
O          3.6758853912        12.2161823470         1.3852174722
H          4.2533557749        12.5932143276         0.7226257501
O          6.1738868141        13.1312366665         1.3807508012
O          2.7331703396        10.9939996901         3.4668234658
C          7.1450437143        11.4401790547         5.9394146084
C          8.2675837046        12.2391994079         6.2114554868
H          6.8721894866        10.7277275737         6.6581966004
C          8.3652790991        13.5257008179         5.7153642218
H          9.1192254660        11.8928334900         6.8663345130
O          9.4938307135        14.2254408530         5.9645219282
H          9.3241691653        15.1557730653         5.8003200642
O          7.4786139010        14.1481759834         4.9900375403
C          7.4766515618        13.6069704380         1.2352085900
H          7.4851589185        14.2936165269         0.4357477488
H          7.8513696534        14.1594002660         2.2103798326
H          8.2008256641        12.7717907252         1.0503342441
C          2.1768192735        10.2536213071         4.5705523903
H          2.9355945014         9.4357490955         4.8614679043
H          1.9828468342        10.9354591345         5.5255900584
H          1.2577979239         9.7267394416         4.1587913549
          28
ANG Step:        838 Time:    17321.7921487145
C          4.4312128328        12.0792649980         2.5231281617
C          3.9617043668        11.4474737743         3.6639774231
C          4.8643256972        11.1232434771         4.7446984793
C          6.1870465419        11.6861407887         4.8360826250
C          6.5637167832        12.4027905224         3.5997124694
C          5.7703321060        12.5698700429         2.4873719798
H          4.4412147950        10.7055328882         5.6454944721
H          7.6297590744        12.5400147462         3.4603659704
O          3.6934743176        12.2037302274         1.3867231372
H          4.2786956462        12.6407719283         0.7141478191
O          6.1862316867        13.1438708929         1.3994420957
O          2.7004631108        11.0028262744         3.4968732478
C          7.1302525618        11.4023721204         5.9576748345
C          8.3204157020        12.2457686108         6.1876475522
H          6.9332826431        10.6008668820         6.7353121241
C          8.3649929385        13.5143647098         5.6943541177
H          9.1061879449        12.0183541139         6.8478675992
O          9.4761787822        14.2660067303         5.9790323725
H          9.2535540147        15.2068273723         5.8001618025
O          7.4681108384        14.1133196777         4.9974650231
C          7.4920329863        13.6062765881         1.2595418752
H          7.4692390985        14.2475893933         0.3174846581
H          7.7581261280        14.1479198459         2.0927421934
H          8.1552209314        12.7790454740         1.0898308874
C          2.1562808282        10.2656498023         4.5917556734
H          2.8023419981         9.4898330373         4.8402377604
H          2.0092801049        10.8923711723         5.3734381545
H          1.2658666767         9.8569049857         4.2292473222
          28
ANG Step:        849 Time:    17549.1665086618
C          4.4626096134        12.1087983247         2.4966232218
C          3.9707924483        11.4415152557         3.6739707739
C          4.9159243567        11.0997733749         4.7339774250
C          6.1556419941        11.6749988945         4.8605006272
C          6.5583997676        12.3923715711         3.6497237740
C          5.7556728810        12.5641722294         2.5125022093
H          4.5432669237        10.6803821818         5.6697675494
H          7.5929438701        12.5812209773         3.4370078608
O          3.7061714312        12.1901514058         1.3859605379
H          4.2504861698        12.6706936012         0.7602822595
O          6.1820964790        13.1655073613         1.3816265016
O          2.6659361583        11.0107730428         3.5407062759
C          7.1340993371        11.3923240912         5.9706744727
C          8.3267816102        12.2112672472         6.1564830691
H          6.9646935338        10.5650134416         6.5928925168
C          8.3612001539        13.5364626882         5.6557868265
H          9.1407356972        11.9954897883         6.9097815763
O          9.4612030997        14.3119344761         5.9994558893
H          9.1663270091        15.2054606812         5.7608454716
O          7.4535578112        14.0795134007         5.0016592334
C          7.5143414653        13.6112680660         1.2543476286
H          7.5034923983        14.1511130914         0.3448762361
H          7.7872380884        14.3214687606         2.1583248653
H          8.2068609574        12.7334025186         1.1510288975
C          2.1355188575        10.2766631010         4.5900964816
H          2.7834441048         9.3643570050         4.9121677995
H          1.9542198831        11.0197105186         5.5198341109
H          1.0821690561         9.9500772226         4.2729878172
          28
ANG Step:        860 Time:    17776.5408686091
C          4.4724324465        12.1199466751         2.4933359476
C          3.9916523565        11.4245926899         3.6581803518
C          4.9257478225        11.0951738836         4.7484894785
C          6.1561329931        11.6587860412         4.8590822574
C          6.5797595187        12.3728372748         3.7050905519
C          5.7513166549        12.5641140064         2.5694672915
H          4.5707877476        10.5232610315         5.6113412726
H          7.6233178940        12.5566265889         3.5114084326
O          3.7102620566        12.1788745650         1.3812652425
H          4.2060598638        12.7263972629         0.7334078723
O          6.1678373453        13.1859040933         1.3541918793
O          2.6652276461        11.0277271826         3.5817809656
C          7.1586033299        11.4247828919         5.9618449421
C          8.3007175057        12.1641177017         6.1333356846
H          6.9764046792        10.4344035564         6.4803276463
C          8.3735501737        13.5451256998         5.6383439220
H          9.0253044010        11.8671006665         6.8306177695
O          9.4403786873        14.3527772713         6.0170928739
H          9.1398129696        15.2240318818         5.7091266527
O          7.4233464395        14.0649540795         4.9911581207
C          7.5460362155        13.6228604087         1.2696162366
H          7.6111684093        14.1589706635         0.2516288116
H          7.8103376656        14.2929872292         1.9972120972
H          8.2386174649        12.8012137078         1.2881267102
C          2.0849526497        10.2871131013         4.6325926771
H          2.6133769750         9.4321926982         4.8976990570
H          2.0046840528        10.8616317559         5.4628025244
H          1.1161139562        10.0463313011         4.3333995612
          28
ANG Step:        872 Time:    18024.5856249153
C          4.4523559383        12.1021691379         2.5212389985
C          4.0090266841        11.3886420361         3.6400219925
C          4.8837656978        11.0941023843         4.7726363437
C          6.1911394149        11.6389104494         4.8539615700
C          6.6179535926        12.3626752777         3.7261064312
C          5.7846184421        12.5974151461         2.6045265519
H          4.5334591325        10.3600709678         5.4755700297
H          7.6911151872        12.4433027998         3.6292617163
O          3.7101669152        12.1728411331         1.3731477927
H          4.1500270664        12.7713866776         0.7254079729
O          6.1617247527        13.1984892039         1.3546363469
O          2.7021680467        11.0550488127         3.6202193727
C          7.1412433360        11.4300418927         5.9318355777
C          8.2774467962        12.1676047219         6.1059857947
H          7.1169577392        10.4600683496         6.3446863724
C          8.3815943847        13.5197836143         5.6483527093
H          9.0339801059        11.6778376860         6.7829902229
O          9.4075210461        14.3843258589         6.0292202590
H          9.1722668390        15.2642901682         5.6529875642
O          7.3902246512        14.0660610382         4.9738163231