          28
ANG Step:       1180 Time:    24391.0677034404
C          4.6032368261        12.2435179854         2.8461094295
C          4.1146000187        11.5641338219         4.0068113877
C          4.9954689347        11.1458806338         4.9687942981
C          6.3886844662        11.2056225616         4.7809613010
C          6.8924221170        11.6400963600         3.4272332418
C          5.9502584196        12.1592600740         2.5084523254
H          4.6687883816        10.7593384621         5.9443504318
H          7.9712521786        11.6910947001         3.2561735500
O          3.7493660292        12.7710482730         1.9891969115
H          4.1966739580        13.0595910131         1.1550850951
O          6.3600354581        12.7682206359         1.3310049526
O          2.8114753804        11.3116330235         4.0198605863
C          7.5010652046        11.0572027453         5.8157361923
C          7.9672323953        12.2946387401         6.2610137722
H          8.0027543669        10.1345212748         6.0291718694
C          7.8387176565        13.5514540770         5.6463498483
H          8.5383138846        12.3882224564         7.1853980202
O          8.3773235756        14.5353788252         6.4745415328
H          8.2624717522        15.3418127466         5.9348922914
O          7.2826064154        13.9246790866         4.5782859517
C          7.0386748520        13.9794490379         1.4929630185
H          6.4136554410        14.8547984399         0.9867792894
H          7.2329501978        14.2040477884         2.4887101409
H          8.0009708187        13.9092310286         0.9626957927
C          2.2365132282        10.8515216871         5.2160094196
H          2.6568419086         9.9075512187         5.7023056926
H          2.2795342793        11.6883991296         6.0820087213
H          1.1654687199        10.6379069704         4.9841527938
          28
ANG Step:       1190 Time:    24597.7716670289
C          4.6601113724        12.2396824235         2.8610580367
C          4.1231311034        11.5900039183         4.0089673358
C          5.0192540279        11.1735077836         5.0074799287
C          6.3948027360        11.1762173185         4.7323683472
C          6.8938422876        11.6330084547         3.4496602818
C          5.9806286499        12.1291289882         2.5112355102
H          4.6172076220        10.6307404477         5.8427594716
H          7.9535548968        11.5774473955         3.2576767259
O          3.7471589057        12.7653902303         2.0083778191
H          4.1838920212        12.9750835782         1.1771678297
O          6.3628627497        12.7702954550         1.3290882944
O          2.7919295954        11.3445565935         4.0178382757
C          7.4964453583        11.0646199733         5.7804845513
C          8.0041572452        12.2909983214         6.2638994053
H          7.9070531002        10.0856075651         6.0704324221
C          7.8235883148        13.5677193370         5.6436813319
H          8.5878455222        12.3620761493         7.1818186136
O          8.3256479130        14.5390608841         6.5001704354
H          8.3469297114        15.3620600458         5.9795807144
O          7.2907140971        13.9301245061         4.5944984204
C          6.9941805607        13.9719745984         1.4655331768
H          6.4478280721        14.7572304280         1.0287740408
H          7.1367529591        14.2819625105         2.5622087769
H          7.9482430451        13.9762108139         0.9390197542
C          2.2011030193        10.8431090308         5.2738622781
H          2.6023546667         9.9287881607         5.6070861522
H          2.3192947688        11.5732079995         5.9490267925
H          1.1747303667        10.7521066694         5.0054450927
          28
ANG Step:       1267 Time:    26189.3921866602
C          4.6300035046        12.0763134085         2.8209734275
C          4.1939968800        11.5129368445         4.0819862042
C          5.1461994507        11.2038658874         5.0413684162
C          6.4849573899        11.1602964303         4.6925432455
C          6.8598366250        11.4672245129         3.3357093841
C          5.9821581577        12.0774275575         2.4296981342
H          4.9167252138        10.8381845059         6.0138306132
H          7.9027754448        11.3588544692         3.0266543546
O          3.7671458130        12.7079087153         2.0125206020
H          4.2765177005        13.0008695408         1.2526673937
O          6.3097428943        12.7002889246         1.3307688004
O          2.8529697117        11.6893243459         4.2722982793
C          7.5615945232        11.1137470348         5.7361913775
C          8.0715351198        12.2638212951         6.3500769112
H          7.9464138209        10.1535410459         5.8497676052
C          7.8024397357        13.6079666161         5.8195309338
H          8.6178692567        12.1893422747         7.3231191636
O          8.1129499643        14.5895347976         6.7120632428
H          7.7544402270        15.3952138014         6.2725693160
O          7.3069163602        13.8951210842         4.7054380582
C          6.8088285868        14.0389993190         1.3646577449
H          6.0068370027        14.6766718477         0.7835518379
H          6.9380558172        14.3492515811         2.3406915978
H          7.7529213928        14.0603421427         0.8339050650
C          2.1358968153        10.9504620500         5.2875757979
H          2.2089210120         9.8323765203         5.0802565786
H          2.5272500784        11.0721939747         6.4306083138
H          1.0310881861        11.2156222893         5.2640237426
          28
ANG Step:       1277 Time:    26396.0961502487
C          4.6567827535        12.0783988347         2.7938832137
C          4.2011677777        11.5457648396         4.0642097345
C          5.1839892123        11.1961550541         5.0258526641
C          6.5030829804        11.1482594411         4.6997356831
C          6.8598323640        11.4663319673         3.3299908318
C          5.9591391022        12.0313501120         2.4452624786
H          4.9489295391        10.7527474650         6.0076070786
H          7.9016836682        11.3111206024         3.1109351242
O          3.7507222015        12.6958707065         2.0049809310
H          4.1591937249        12.9703610986         1.1375999998
O          6.2779027437        12.6765781983         1.3120324395
O          2.8541918250        11.7314895917         4.3035541527
C          7.5791188488        11.1381482995         5.7324956850
C          8.0621534599        12.2865140166         6.3927698338
H          8.1019641545        10.1372493354         5.8757918018
C          7.8181486613        13.5713885279         5.8407434542
H          8.5811560960        12.1348913201         7.3090821339
O          8.0937815244        14.5898319991         6.7360379999
H          7.6819367834        15.3674828630         6.3445499607
O          7.2941937508        13.8966955906         4.7181807352
C          6.7894354882        14.0608014862         1.3580828959
H          6.1071445860        14.6623759681         0.8467240500
H          6.9408663791        14.4805920959         2.4433570186
H          7.7128579920        14.0602863963         0.7543143038
C          2.1276147331        10.9520253314         5.3254029948
H          2.2103729615         9.9510044599         5.0026397462
H          2.5214120147        11.0402741920         6.2371017277
H          1.1253730899        11.2617832653         5.2932855335
          28
ANG Step:       1287 Time:    26602.8001138372
C          4.6281665736        12.0907573675         2.7768008036
C          4.1858524127        11.5924506567         4.0631477917
C          5.1927578986        11.1533073235         5.0145684966
C          6.5463125549        11.1655488087         4.6876459256
C          6.8681272752        11.4692684529         3.3330798383
C          5.9731051845        11.9823533341         2.4737741205
H          4.8851692909        10.8239864030         5.9871620668
H          7.9280556628        11.3675506886         3.1099035610
O          3.7308717245        12.6791464460         1.9997668447
H          4.1164983062        12.8760865409         1.1403172494
O          6.2550274374        12.6609485584         1.2712919746
O          2.8687707687        11.7678026008         4.3351206872
C          7.6038875502        11.1301798884         5.7376386751
C          8.0405990181        12.3012330070         6.4004147605
H          8.1006425246        10.2458342766         5.9767551524
C          7.8243385067        13.5446602309         5.8594050738
H          8.6259786096        12.1515808117         7.3289796007
O          8.0755084368        14.5937575647         6.7637242629
H          7.6339827521        15.3743063030         6.3806367588
O          7.2881226690        13.8885354939         4.7450191523
C          6.7822122514        14.0730181208         1.3716443075
H          6.0357304291        14.7691698450         0.8325292545
H          6.9426586860        14.4212905422         2.3202553047
H          7.6831160569        14.0627693765         0.7729580163
C          2.1392257983        10.9543137657         5.3231132714
H          2.1793726993         9.8904887368         4.9259091697
H          2.6820829762        11.1038320377         6.3928115411
H          1.0981540359        11.4067255251         5.2933805817
          28
ANG Step:       1288 Time:    26623.4705101960
C          4.6227789990        12.0920109267         2.7765882551
C          4.1840777717        11.5971659825         4.0645099519
C          5.1920152049        11.1479618578         5.0129275138
C          6.5506536134        11.1682479623         4.6862527642
C          6.8706976906        11.4693565610         3.3343187559
C          5.9755277652        11.9790915000         2.4745567674
H          4.8770129497        10.8374380966         5.9843201650
H          7.9283092537        11.3796535474         3.1037841153
O          3.7283977541        12.6771421799         1.9998014491
H          4.1221592358        12.8677155938         1.1349971126
O          6.2532228076        12.6597118613         1.2671518800
O          2.8708147158        11.7711412219         4.3381051910
C          7.6064873460        11.1291080709         5.7386333399
C          8.0382792449        12.3007283850         6.3998609648
H          8.0963755141        10.2488751768         5.9903588404
C          7.8237699276        13.5448711044         5.8606230945
H          8.6323423927        12.1583743058         7.3308518778
O          8.0736552198        14.5943371196         6.7665034482
H          7.6330753231        15.3699727219         6.3831969539
O          7.2880265405        13.8869472453         4.7486114144
C          6.7811877885        14.0727838782         1.3711655756
H          6.0234160636        14.7792369487         0.8302813153
H          6.9468673448        14.4137096525         2.3268331688
H          7.6821998745        14.0636158428         0.7791394430
C          2.1420982537        10.9548581743         5.3226618175
H          2.1728152207         9.8915455436         4.9275425370
H          2.6869749481        11.1059098393         6.3937468860
H          1.1018034140        11.4172408238         5.2955479495
          28
ANG Step:       1299 Time:    26850.8448701433
C          4.5672093640        12.0981035245         2.7955088475
C          4.1764697509        11.6406127170         4.0975157624
C          5.1743820145        11.0960344939         4.9756073421
C          6.5802163984        11.1956473431         4.6855235173
C          6.9171031321        11.4729207172         3.3436242012
C          5.9891549949        11.9707482520         2.4531316960
H          4.8068954817        10.9733946427         6.0189510163
H          7.9450269404        11.5501284140         3.0072093596
O          3.6990505074        12.6556400538         1.9913197643
H          4.2075939899        12.7807005634         1.1513437618
O          6.2385515449        12.6477037243         1.2289458678
O          2.8929692097        11.8038372725         4.3686684318
C          7.6326000159        11.1199858097         5.7508659881
C          8.0215540293        12.2788550731         6.3951117424
H          8.0266845132        10.1292052740         6.1436004698
C          7.8066290885        13.5756294972         5.8757309686
H          8.6376430379        12.2645747411         7.2572526304
O          8.0562479217        14.5966940452         6.7985472906
H          7.6225298316        15.3616603736         6.3644582387
O          7.2883067985        13.8653386722         4.7892052450
C          6.7500459632        14.0655683008         1.3513473904
H          6.0499784482        14.7086873269         0.9369618821
H          6.9773649032        14.3019043327         2.4829449958
H          7.7233161481        14.0865384208         0.8166094402
C          2.1852334019        10.9760173137         5.3220323980
H          2.0924490960         9.9640039059         5.0172552542
H          2.6013253100        11.0486358311         6.2245017786
H          1.2484495525        11.4363724367         5.3552433360
          28
ANG Step:       1310 Time:    27078.2192300907
C          4.5564727551        12.0903429078         2.8354833028
C          4.1996403278        11.6615830974         4.1431703234
C          5.1527506930        11.0747741336         4.9377800986
C          6.5751795395        11.2048182048         4.7043641610
C          6.9645757098        11.4995862471         3.3143286293
C          5.9719863945        11.9965154806         2.4141847144
H          4.8820919422        11.0221891134         5.9620962780
H          7.9853450548        11.6824914865         2.9948624087
O          3.6713124317        12.6326904306         1.9715014698
H          4.2789485839        12.7604761541         1.1844229624
O          6.2289803812        12.6348215315         1.2055319352
O          2.9044448685        11.8300181768         4.3968466161
C          7.6561574562        11.0829672602         5.7606345024
C          8.0146912467        12.2738832083         6.3884199083
H          7.7989019824        10.1296289198         6.1603938123
C          7.7854505752        13.5996183108         5.9192285917
H          8.6686600852        12.2812142009         7.2924102805
O          8.0390956692        14.6030003560         6.8268436762
H          7.6796017111        15.3677204180         6.3683574687
O          7.2782827190        13.8526875755         4.8080295603
C          6.7444904379        14.0218492689         1.3677977712
H          5.9292444094        14.7532813860         0.9671697098
H          6.8980304031        14.1295211206         2.3783860496
H          7.6688913489        14.1244428931         0.8345365438
C          2.2287704474        11.0153597431         5.3026134896
H          2.0732332386         9.9291602887         5.0074687975
H          2.7056085947        10.9842501398         6.4243762225
H          1.1936754830        11.4822737943         5.4315724281
          28
ANG Step:       1320 Time:    27284.9231936791
C          4.5843629420        12.0888201892         2.8487389251
C          4.2202269123        11.6699844913         4.1606819137
C          5.1686270487        11.0833765606         4.9315405966
C          6.5615058201        11.2008868206         4.6925512568
C          6.9675851759        11.5480154901         3.2696850758
C          5.9513800874        12.0215693957         2.4084410155
H          4.9427973641        10.9113673611         6.0057107349
H          8.0295501927        11.7090311148         3.0736339452
O          3.6647261734        12.6032243657         1.9594370201
H          4.2291971408        12.8040015751         1.1914765159
O          6.2201102144        12.6205267644         1.1890622782
O          2.9103228970        11.8533497559         4.4195653343
C          7.6550840025        11.0626869276         5.7471695454
C          8.0260671788        12.2826990903         6.4064236606
H          7.6610091448        10.0301361097         6.2262935493
C          7.7585517120        13.5886145875         5.9630139981
H          8.6041331301        12.1835894703         7.2942704731
O          8.0253786952        14.6117813819         6.8506645243
H          7.7633153628        15.4384049714         6.3818652733
O          7.2618392940        13.8547218658         4.8128521842
C          6.7163136478        13.9725666113         1.3723125281
H          5.9918845352        14.6615440708         1.0590815250
H          6.8837157874        14.1184603638         2.5309905782
H          7.6428531440        14.1408279795         0.7726523933
C          2.2478515212        11.0406201395         5.3396485002
H          2.1644202036        10.0616552569         4.9239350027
H          2.7068806084        10.9721278849         6.2265577962
H          1.2962841118        11.4528444433         5.4617947101
          28
ANG Step:       1331 Time:    27512.2975536265
C          4.6218159687        12.1035205982         2.8240876459
C          4.2162520267        11.6794303182         4.1439475837
C          5.2246838850        11.1073017327         4.9850233637
C          6.5580718598        11.1942796290         4.6298141146
C          6.9304788528        11.6060410764         3.2524346735
C          5.9456491894        12.0423683088         2.4265435233
H          4.9678346067        10.7305207458         5.9477183037
H          7.9967619911        11.6739910515         3.1078020595
O          3.6759044391        12.5598933292         1.9683154163
H          4.1420948804        12.8698466582         1.1375645142
O          6.2068292303        12.6001503581         1.1743416241
O          2.9294991359        11.8895235784         4.4334388959
C          7.6348998948        11.0580652106         5.7239454935
C          8.0310141477        12.2553704910         6.4325206916
H          7.6479815845        10.1478184831         6.2371085916
C          7.7104394461        13.5762396102         5.9763276884
H          8.5474045837        12.0806857677         7.4049443179
O          8.0125499854        14.6206270433         6.8735108089
H          7.8803820651        15.4473525639         6.3917102587
O          7.2475230493        13.8616877996         4.8349667496
C          6.7019868109        13.9195175798         1.4070605772
H          5.8949145152        14.6881752855         1.0773351570
H          6.9333207577        14.1433075850         2.3813428085
H          7.5542423551        14.0777448314         0.7823033661
C          2.2592919567        11.0539898643         5.3681580166
H          2.2268208544        10.0697914990         4.8148644348
H          2.9097061964        10.9664726547         6.3869127262
H          1.2203672288        11.5004016674         5.5233664903
          28
ANG Step:       1343 Time:    27760.3423099326
C          4.6275525787        12.1251774220         2.7970975889
C          4.2297119477        11.6765116293         4.1249844269
C          5.2627596006        11.1530017991         5.0281814153
C          6.5770387864        11.1920799885         4.5678242606
C          6.8887700583        11.6485202702         3.2943501294
C          5.9546969565        12.0651121449         2.4201620601
H          4.9904604422        10.5978322686         5.9458420117
H          7.9361018830        11.6455655602         2.9807300969
O          3.6927760693        12.5137397014         1.9851712105
H          4.0713261701        12.8490685492         1.1694405587
O          6.1914378237        12.5707747476         1.1748975710
O          2.9566421546        11.9370753685         4.4405494752
C          7.6105720336        11.0943447830         5.6838499379
C          8.0076886795        12.2033588113         6.4515649672
H          7.7267163236        10.1253798334         6.2429157634
C          7.6683634108        13.5612958080         5.9897235501
H          8.4266447243        12.0897703398         7.4226693265
O          8.0004970381        14.6148113842         6.8932945178
H          7.9729190634        15.4103092971         6.3428580743
O          7.2313293501        13.8716334013         4.8681190525
C          6.6716009983        13.9050070424         1.4038575877
H          5.9303057802        14.5799638083         1.1428797364
H          7.0508725198        14.1136879367         2.4905697531
H          7.5583038274        14.0149631476         0.7252513283
C          2.2897251760        11.0534550159         5.4115620980
H          2.1790724993        10.0987733719         4.9553873877
H          2.8052629791        10.9824156094         6.2588297415
H          1.3505421655        11.4656980594         5.5987391154
          28
ANG Step:       1352 Time:    27946.3758771623
C          4.6232093502        12.1285979501         2.8091417752
C          4.2619944736        11.6665916546         4.1325519363
C          5.2560199502        11.1878057942         5.0201116917
C          6.5906138120        11.1950442855         4.5830845361
C          6.8879395230        11.6691233477         3.3166129322
C          5.9497076210        12.0756112589         2.4031575059
H          5.0499209832        10.6682216001         5.9222276356
H          7.8787902809        11.6470780167         2.8979796461
O          3.6849215149        12.4871770328         1.9917440332
H          4.1089711885        12.8040667872         1.1448169088
O          6.1853907968        12.5499362087         1.1815826842
O          2.9738876957        11.9621091860         4.4479826911
C          7.6053563174        11.1035877945         5.6576491917
C          7.9598902500        12.1985832991         6.4419748134
H          7.7637174779        10.1586089332         6.0717568835
C          7.6598026256        13.5354581133         6.0258504171
H          8.3795384913        12.0943416996         7.4668233573
O          7.9910383441        14.5979975209         6.9029145102
H          8.0159551917        15.3638213511         6.2932351224
O          7.2139861250        13.8820874181         4.8848789574
C          6.6864384565        13.9091557836         1.3984414268
H          5.8391730896        14.6448809117         1.1613734836
H          7.0165098461        13.9883271007         2.3587923890
H          7.4904597991        14.0230002775         0.7103738551
C          2.3180835407        11.0615633829         5.4141277274
H          2.1261984715        10.0108103102         5.0407695742
H          2.9140059668        10.9839089593         6.4626059891
H          1.3115902700        11.5373465024         5.6600470706
          28
ANG Step:       1364 Time:    28194.4206334684
C          4.6208721216        12.1133097435         2.8544937048
C          4.2902860604        11.6687114158         4.1592465098
C          5.2387253845        11.2167242827         4.9747037865
C          6.5897928357        11.2256916979         4.6456685175
C          6.9078876201        11.6863346355         3.2949044728
C          5.9278007655        12.0619612779         2.4177982262
H          5.0398384538        10.8940510766         6.0139592274
H          7.9417240138        11.6655986698         2.9288569194
O          3.6523695172        12.4661880696         1.9831839665
H          4.1664512097        12.6670095893         1.1666991794
O          6.1902785407        12.5408965227         1.1742064745
O          2.9940668472        11.9597725495         4.4695150269
C          7.6199785496        11.0965869730         5.6255062484
C          7.8819588066        12.2227499237         6.4390933705
H          7.8504458009        10.0300719074         5.8934555225
C          7.6539974371        13.5171006018         6.0606947778
H          8.3322959807        12.0538668415         7.3846440708
O          7.9801415690        14.5604596713         6.9107378553
H          8.0216470026        15.2801994932         6.2753775140
O          7.1927024599        13.8907896810         4.9138640170
C          6.6869450722        13.9235752703         1.3518757135
H          5.9115436673        14.6189241947         1.2519429592
H          7.0687127729        13.9692022802         2.4585428112
H          7.4914139362        14.1247848058         0.5897262069
C          2.3564319090        11.0856139505         5.4525263954
H          2.1815391003        10.1032813188         5.0886627845
H          2.8864538668        11.0472974237         6.2948071641
H          1.4562099797        11.5748879299         5.6434386067
          28
ANG Step:       1375 Time:    28421.7949934158
C          4.5939014468        12.0956823203         2.8726837931
C          4.2560683152        11.7051417559         4.1654264329
C          5.2505693353        11.2032371190         4.9863764111
C          6.5770136184        11.2889212889         4.6482687465
C          6.9334404607        11.6802824149         3.2780386991
C          5.9246958832        12.0364448926         2.4443558198
H          4.9682637413        11.1754659501         6.0214247092
H          7.9808370319        11.7184802988         3.0546234702
O          3.6309609432        12.4483374867         1.9813728563
H          4.1531489818        12.5517241794         1.1614529277
O          6.1996179725        12.5526450917         1.1573777176
O          3.0149432285        11.9309263178         4.4948895909
C          7.6519663975        11.0705491653         5.6199175274
C          7.8234176741        12.2099835244         6.4527765340
H          7.9226075584        10.0731481217         5.8533115995
C          7.6321753548        13.5394107060         6.0472185652
H          8.3899586817        12.0185532948         7.3865340833
O          7.9748342881        14.5175026416         6.9226398343
H          7.9788764139        15.2847195086         6.3056942438
O          7.1774461072        13.8916790285         4.9494703270
C          6.7094537076        13.9257599969         1.3228039060
H          5.8301012836        14.6777680235         1.2885786996
H          7.1422005673        14.0756864989         2.2565251574
H          7.4089249265        14.1652241402         0.5670027420
C          2.3885756588        11.1316743140         5.4669251356
H          2.2581411386        10.1048059757         5.0059844188
H          3.0771166999        11.0920231753         6.4643108208
H          1.3948870908        11.6535534857         5.6659281866
          28
ANG Step:       1386 Time:    28649.1693533631
C          4.5575021549        12.0832968892         2.8425155431
C          4.2334331402        11.7382016652         4.1716703037
C          5.2537040308        11.1976230126         5.0234738729
C          6.5788616465        11.3423269602         4.6127669726
C          6.9437249885        11.6622202329         3.2931830076
C          5.9456282492        12.0246426871         2.4389580084
H          4.9931627458        11.2794995403         6.0828671450
H          8.0132526640        11.7998739296         3.1016283574
O          3.6239176155        12.4280475784         1.9883542605
H          4.0788967160        12.4944148189         1.0977995053
O          6.2078935772        12.5727286165         1.1558621500
O          3.0151867782        11.9113139140         4.5150738778
C          7.6739369624        11.0719994886         5.6194272524
C          7.8013026764        12.1708476874         6.4893015285
H          7.9445305627        10.0518841121         5.9679200038
C          7.6103741136        13.5358336222         6.0399747957
H          8.4270224998        12.0743086856         7.3499584078
O          7.9767012134        14.4874627939         6.9427392709
H          7.9036783560        15.3288220597         6.4600374574
O          7.1515725277        13.9010343763         4.9564872016
C          6.7001896403        13.9397286475         1.2866891707
H          5.8795479450        14.5852119718         1.2663280920
H          7.3261221794        14.1307213567         2.2596854817
H          7.3744891393        14.1471586740         0.3988079236
C          2.4221819314        11.1711625419         5.5124201608
H          2.3081347325        10.2058328863         5.0875721603
H          2.9486388910        11.1070501828         6.3516691004
H          1.4809660512        11.5824352855         5.7038593850
          28
ANG Step:       1395 Time:    28835.2029205927
C          4.5612478211        12.0684283514         2.8063552072
C          4.2600930289        11.7423354977         4.1882086129
C          5.2404551997        11.2263314307         5.0418899703
C          6.5898178384        11.3460626902         4.6093770031
C          6.9436334892        11.6566655774         3.2999623832
C          5.9617277029        12.0308658284         2.4102972015
H          5.1141680822        11.1950744462         6.1117053983
H          7.9741110282        11.8382804179         3.0710941938
O          3.6146935555        12.4135744649         1.9834643107
H          3.9918663301        12.4928847557         1.1003615755
O          6.2134262142        12.5858649332         1.1711017931
O          2.9921137138        11.9191786267         4.5203616716
C          7.6820928597        11.0827077400         5.6175423543
C          7.8035407485        12.1590423161         6.5173885494
H          7.8204320491        10.1190695314         6.0269707406
C          7.5994326195        13.4987112706         6.0542937907
H          8.4712057753        12.1115636017         7.4038417811
O          7.9827572200        14.4715622815         6.9697921990
H          7.8204402839        15.3534197713         6.5943057381
O          7.1207378170        13.9148367770         4.9396379962