          28
ANG Step:         97 Time:     2005.0284468082
C          4.4673967292        11.7131827039         2.0093820650
C          4.1201695479        11.0630563859         3.1922130141
C          4.9022087117        11.0995624370         4.3669048858
C          6.0806775805        11.8679810944         4.5190466513
C          6.4247911680        12.4930501699         3.3097283151
C          5.5955924270        12.4420875317         2.1599326615
H          4.4272269936        10.5427847553         5.1645104987
H          7.3586897539        13.0331405878         3.2087360136
O          3.5968353091        11.7612006511         0.9627636350
H          4.0831497508        12.2670327111         0.2758600165
O          5.8206849889        13.1705323421         1.0312593499
O          3.0688894789        10.2504720690         3.0460660524
C          6.7848328762        11.7280705732         5.7929615173
C          7.8974463261        12.3762788032         6.3738436527
H          6.2954591130        10.9220183111         6.3639984427
C          8.6196528073        13.3932016265         5.8218194611
H          8.2052635255        11.9253991496         7.3354186031
O          9.6637928345        13.7414154738         6.6891502385
H         10.1180296075        14.4421672227         6.1996025395
O          8.6168622721        14.0792173600         4.7129862870
C          6.9456951011        13.9157191609         0.8282701861
H          6.7864895428        14.5593327980        -0.0572412223
H          7.2973285617        14.5887355348         1.6196404282
H          7.7754938843        13.2295999705         0.6295547584
C          1.9595499762        10.5384495403         3.8099405977
H          2.1678628414        10.8004804502         4.8676383126
H          1.3654385996        11.4104465821         3.4697348843
H          1.3512129880         9.6328821969         3.8130974770
          28
ANG Step:        120 Time:     2480.4475630617
C          4.4272794117        11.7300351614         2.0295942658
C          4.1080367071        11.0730411894         3.1831636876
C          4.8815607133        11.1221122438         4.4318552364
C          6.0603494081        11.8197114440         4.5195775542
C          6.5286743214        12.4461506381         3.2642485931
C          5.6462165367        12.4730097262         2.1025882926
H          4.6458277322        10.4736061539         5.2691049988
H          7.4643789555        12.9911495520         3.3207363478
O          3.5676282858        11.7845582255         0.9163099089
H          4.0104696421        12.2610402832         0.1918605407
O          5.8007427525        13.2153124789         1.0276790907
O          3.0614683727        10.2538935463         3.0751794015
C          6.7504818246        11.6774801043         5.8073013580
C          7.8074469273        12.3325734731         6.3961161506
H          6.2227380937        11.0068021822         6.5126425012
C          8.7192697399        13.4486200961         5.7994269536
H          8.1816271376        12.0179471769         7.3813940715
O          9.7246545276        13.8239664496         6.6360357249
H         10.1801796227        14.5619277806         6.1975284117
O          8.5694598881        14.0285596526         4.7319032337
C          7.0526094136        13.9788727050         0.8446297163
H          6.8377875315        14.5853029943        -0.0519606475
H          7.0768609202        14.5676658273         1.7630421232
H          7.9331033820        13.3563271208         0.7032629773
C          1.9022521911        10.5005974563         3.8926201039
H          2.2263127592        10.5867688254         4.9442701807
H          1.4772867844        11.4060900889         3.4299564066
H          1.2064381630         9.6710105573         3.7137628323
          28
ANG Step:        143 Time:     2955.8666793152
C          4.4382160268        11.7956868638         2.0238904370
C          4.0892127241        11.0411369323         3.1940225633
C          4.8181128344        11.1366785779         4.3835059020
C          6.0947324138        11.7692986732         4.4801247800
C          6.5400980805        12.3895625351         3.3161698369
C          5.6501341217        12.4802950324         2.0816313008
H          4.4461004873        10.4750321305         5.1681681931
H          7.5252691820        12.8432751524         3.3083646514
O          3.5950698789        11.7923002466         0.9518868424
H          4.0631851305        12.2953211073         0.2754993203
O          5.8779900316        13.2876495788         0.9653671311
O          3.0013995674        10.2070422796         3.1099089969
C          6.7615345213        11.6895007389         5.8216266472
C          7.8770746866        12.4307145260         6.3221292334
H          6.2366342446        11.0380535715         6.5402709216
C          8.6771736026        13.3870787147         5.8322149966
H          8.0034931612        12.1868697640         7.3680021061
O          9.7908968794        13.8819875168         6.6210578942
H         10.0893555452        14.6133129019         6.0377662442
O          8.5078387306        13.9737577732         4.7144416056
C          7.0881049548        14.0596074322         0.9035623552
H          7.0428298620        14.6373972626        -0.0334056500
H          7.3298436077        14.7716018356         1.7088271787
H          7.9029381822        13.3421977995         0.8485436955
C          1.8529683510        10.4706678637         3.9592558044
H          2.0446193084        10.4513026872         5.0545515327
H          1.3814719386        11.4634551537         3.8233363333
H          1.1514574026         9.6519476369         3.7512784543
          28
ANG Step:        161 Time:     3327.9338137745
C          4.4280081744        11.7880224181         2.0709155041
C          4.0259245556        11.0366937388         3.1346862520
C          4.8170210855        11.1177403616         4.3288381995
C          6.0928211187        11.7291186274         4.4938034635
C          6.4929001635        12.3670994293         3.2837296898
C          5.6947307278        12.5219452805         2.1139268209
H          4.3149367780        10.6783980764         5.1873847004
H          7.4968124689        12.7559824374         3.2797803850
O          3.6377689049        11.8063836917         0.9854978948
H          3.9881346635        12.3243980829         0.2600387320
O          5.9511247400        13.3193902012         0.9962221638
O          2.9418283355        10.2064248566         3.1481166679
C          6.8142039156        11.7577102919         5.7761569729
C          7.8610221474        12.3996804608         6.3631129454
H          6.2887876804        11.0661538062         6.4506257902
C          8.7054829831        13.4599371279         5.7875218136
H          8.0841139236        12.2251561401         7.4409978650
O          9.7733745621        13.8873766440         6.5788900474
H         10.0867362341        14.6167750745         5.9954629881
O          8.4789841433        13.9360225875         4.6869196503
C          7.1449981533        14.1009752563         0.9320993031
H          7.1330754766        14.6337635339        -0.0383240681
H          7.1632531167        14.7610222312         1.8188672001
H          8.0102444848        13.4375555759         0.9438765252
C          1.8307434863        10.4390894810         4.0243832381
H          2.1703676369        10.2384052022         5.0513991592
H          1.4362373354        11.4536986487         3.8360535436
H          1.0924138195         9.6895666630         3.7151832893
          28
ANG Step:        169 Time:     3493.2969846453
C          4.4384144784        11.7962131417         2.0703006157
C          4.0096978377        11.0390030448         3.1353567285
C          4.8192449064        11.1057020263         4.3190002493
C          6.0764577500        11.7227146103         4.4845238574
C          6.4942959267        12.3653416152         3.2683599514
C          5.6892370324        12.5361617249         2.1188852126
H          4.3661052024        10.7457935616         5.2469215794
H          7.4923965372        12.7990096298         3.2644028937
O          3.6446409234        11.8124506741         0.9871297188
H          4.0204380549        12.3667576581         0.2735553046
O          5.9711418650        13.3086874801         1.0390431679
O          2.9181729869        10.2124884368         3.1506786450
C          6.8100251734        11.7658936880         5.7455497102
C          7.8790188650        12.4056369912         6.3985683039
H          6.3546301399        11.0828720430         6.4625559293
C          8.7053237283        13.4596346737         5.8029513605
H          8.1126145773        12.1766764794         7.3988328032
O          9.7513270651        13.8905442871         6.5433752598
H         10.1898214203        14.6253132829         6.0821622846
O          8.4728445558        13.9398342161         4.6455373298
C          7.1853797849        14.1169466239         0.9491542621
H          7.1084089154        14.6369157605         0.0058875902
H          7.0776630304        14.7556025276         1.8274100619
H          8.0898591573        13.5002257824         1.0037014511
C          1.8323422838        10.4200822806         4.0512046971
H          2.1705106684        10.2057982750         5.0716262159
H          1.4607557149        11.4328203394         3.8771588640
H          1.0412608208         9.7362168084         3.7135239575
          28
ANG Step:        179 Time:     3700.0009482338
C          4.4512037694        11.8105865881         2.0534596956
C          4.0063526157        11.0440910958         3.1654465250
C          4.8230641070        11.0934402725         4.3348708814
C          6.0579754873        11.7332212703         4.4451096358
C          6.5184683310        12.3696145848         3.2630877124
C          5.6620382833        12.5373110420         2.1296149472
H          4.4345351122        10.7319611377         5.2766743042
H          7.4783808212        12.8742784115         3.2762896391
O          3.6445642766        11.8240922540         0.9706414818
H          4.0784120981        12.4034853511         0.3346672792
O          5.9941955703        13.2823793431         1.0916575755
O          2.8983183501        10.2240633835         3.1353812342
C          6.7999751325        11.7594154586         5.7328992871
C          7.9109757726        12.4398694679         6.4042195782
H          6.3833229778        11.0607809976         6.4554370511
C          8.6735220560        13.4455212416         5.7958428360
H          8.1409800857        12.0455880656         7.4411868749
O          9.7304282727        13.8958305659         6.5089119841
H         10.2625541385        14.6137137593         6.1337978324
O          8.4739682045        13.9445031607         4.6068413734
C          7.2204889492        14.1292135009         0.9904813061
H          7.0770297651        14.6641984589         0.0417875480
H          7.1203914490        14.8472613309         1.8069890283
H          8.1573744303        13.5756049558         1.0787469784
C          1.8382441426        10.4006670485         4.0766183090
H          2.0929519660        10.2037547448         5.1235839535
H          1.4809503274        11.4417230752         4.0390652367
H          1.0188617547         9.7636146766         3.7622913812
          28
ANG Step:        202 Time:     4175.4200644873
C          4.3960633878        11.7714812420         2.0702132922
C          4.0291895219        11.0732987928         3.2219273277
C          4.8235391278        11.0852046299         4.3964049609
C          6.1018226622        11.7981709727         4.4306082641
C          6.5512446538        12.4013778817         3.2894544579
C          5.6551833792        12.4957601218         2.2008922084
H          4.5086511804        10.4320340358         5.2027959090
H          7.4689526396        12.9617222609         3.3690195608
O          3.6479057885        11.8693890041         0.9043843135
H          4.0830342795        12.4656949341         0.2643974133
O          6.0655307873        13.2518670902         1.1494144969
O          2.8866486212        10.2923979057         3.0883033074
C          6.8122392940        11.7342956532         5.7764879354
C          7.8449940301        12.4329873328         6.2908416536
H          6.3560812529        10.9335965484         6.3537854129
C          8.6263800605        13.4737097314         5.6778644331
H          8.2954520740        12.1172149440         7.2799904703
O          9.7034905192        13.8987992004         6.4857672681
H         10.0352421511        14.5199021907         5.8092602079
O          8.4868272045        13.9458851782         4.5654020203
C          7.2176499654        14.1532914192         1.1262989563
H          7.1689028022        14.5217184594         0.0862975377
H          7.2704752739        14.9428504724         1.8852111872
H          8.1073025739        13.5263799092         1.1696859495
C          1.8539551565        10.4009168871         4.1458547838
H          2.2539545867         9.9733702423         5.0791215568
H          1.5122299930        11.4424466928         4.2390460143
H          1.0589708479         9.7497907448         3.7843998876
          28
ANG Step:        220 Time:     4547.4871989465
C          4.4085576600        11.7991792706         2.0688571429
C          4.0037361540        11.0779623951         3.2183060031
C          4.8620397275        11.1040231485         4.3719113291
C          6.1001286807        11.7930776685         4.5582474200
C          6.5292846606        12.4364096454         3.3673474401
C          5.6935821086        12.4674673236         2.1949540725
H          4.6134027318        10.3948691850         5.1524694913
H          7.4872156404        12.9480303597         3.3137726436
O          3.6598019474        11.8913329727         0.8991813058
H          4.1909395101        12.4834707729         0.3270480885
O          6.0715205397        13.2399238766         1.1787149192
O          2.8713665477        10.3787384168         3.0893555695
C          6.7639794624        11.6647369925         5.7569130797
C          7.8408466682        12.4338459093         6.2003339312
H          6.4726305307        10.9041282052         6.4692496007
C          8.6069051418        13.4477621459         5.6656079733
H          8.1883643692        12.1864179749         7.2564129273
O          9.6581323446        13.9095499338         6.4281183934
H         10.1414674910        14.5309038218         5.8527427858
O          8.5045089424        13.9947656505         4.4766726209
C          7.2133984953        14.1087891971         1.2086672593
H          7.2415759238        14.6270029336         0.2380903494
H          7.0554543248        14.7968598441         2.0291171051
H          8.1108882278        13.5113560065         1.3977769479
C          1.9267880048        10.3798986928         4.1563464613
H          2.3597156521         9.9193418292         5.0441510375
H          1.5893682657        11.3899585017         4.3998254067
H          1.0745488902         9.8206426334         3.7977082844
          28
ANG Step:        233 Time:     4816.2023516115
C          4.4623155770        11.8408056143         2.0642810117
C          4.0221190230        11.1197488412         3.1713307459
C          4.8875875760        11.0971756667         4.3538741913
C          6.0161233568        11.7695320392         4.5630991806
C          6.4893841683        12.4514115492         3.4334292496
C          5.7027948248        12.4470271800         2.2083112365
H          4.5883745062        10.4310104962         5.1629403358
H          7.5136831133        12.8188657200         3.3962291131
O          3.6853559934        11.9052996155         0.9257973559
H          4.2149245635        12.4697777114         0.3477714734
O          6.0501167605        13.2238324363         1.1681925203
O          2.8517471420        10.4399642418         3.0927641713
C          6.7799407757        11.6218774736         5.7948819805
C          7.8591838683        12.4181303022         6.1968437502
H          6.4227835358        10.8902164947         6.5152280713
C          8.6060952161        13.4835566017         5.5576392907
H          8.0669164120        12.1776697926         7.1861526428
O          9.6181489142        13.9121836330         6.3879105098
H         10.1962998853        14.5464888809         5.9253260143
O          8.5230722909        14.0182105781         4.4533216427
C          7.2077643536        14.0654680075         1.2850102888
H          7.2754542205        14.6750459952         0.4019275199
H          7.0007338469        14.7570429529         2.1112812105
H          8.1703311630        13.5939404264         1.5245419714
C          1.9854950678        10.3612154877         4.1662034829
H          2.3457287626         9.8773097778         5.0878753928
H          1.7159831903        11.3649912228         4.5217027176
H          1.0953780094         9.8128877301         3.8362215937
          28
ANG Step:        240 Time:     4960.8951261235
C          4.4792843139        11.8497046459         2.0633909249
C          4.0447083796        11.1477122115         3.1495249148
C          4.8597733114        11.0692902084         4.3455730266
C          5.9893148706        11.7665517618         4.5558472064
C          6.4618221007        12.4509969308         3.4506355321
C          5.7141968704        12.4497401237         2.2279614404
H          4.5260961204        10.4347154085         5.1519585830
H          7.4971504029        12.7606819557         3.4827816416
O          3.7078577643        11.9158165750         0.9457753510
H          4.1828498367        12.4723672669         0.2873565961
O          6.0432856168        13.2113555946         1.1537903064
O          2.8528971972        10.4746288184         3.0847602237
C          6.7997437073        11.6092636815         5.8207054366
C          7.8598008726        12.4073109458         6.1893652943
H          6.3659718850        10.8934938319         6.5169491346
C          8.6106734811        13.4988682224         5.5093833553
H          8.1494722773        12.2051719475         7.2642297300
O          9.6006077841        13.9116182204         6.3766136134
H         10.1576097930        14.5482161203         5.9085920599
O          8.5296854130        14.0335849153         4.4305986328
C          7.2013688250        14.0576422873         1.3397632079
H          7.2854352708        14.6519319434         0.4262449706
H          7.0165937800        14.7391769791         2.1554022286
H          8.1607118031        13.5734394719         1.5428113613
C          2.0032736049        10.3548011590         4.1953678930
H          2.3987376959         9.8042403197         5.0496888881
H          1.7569135486        11.3535308806         4.5343881195
H          1.1286947696         9.8284039747         3.8455474270
          28
ANG Step:        262 Time:     5415.6438460181
C          4.5374470226        11.8568456765         2.0569960383
C          4.0393813745        11.1534608532         3.1634203371
C          4.7457405664        10.9916269741         4.3711504964
C          5.9598514416        11.7120588070         4.6163668087
C          6.4235848676        12.4191765104         3.4666834678
C          5.7112306585        12.5130262102         2.2297974779
H          4.2999991959        10.2963240985         5.0623941283
H          7.3855172602        12.9398254006         3.5257306572
O          3.7567088765        11.9544021189         0.9699612585
H          4.1864862413        12.4849766181         0.2747157771
O          6.0840582408        13.1805336494         1.1492639628
O          2.8745201319        10.5918158375         3.0321560927
C          6.7881751434        11.5969044874         5.8189169870
C          7.8977380694        12.4279851405         6.1618604152
H          6.3829864361        10.9815840402         6.6250101392
C          8.5921768157        13.4535348775         5.4878883102
H          8.4683214529        12.3072051462         7.1359583737
O          9.5742611190        13.9231584678         6.3552461537
H          9.9832127332        14.6134360426         5.8096170207
O          8.5369606094        14.0910557724         4.3077226459
C          7.1856556209        14.0668867639         1.4579203308
H          7.3458589335        14.6300153846         0.5321369770
H          7.0389090452        14.6710582526         2.3403383589
H          7.9946952116        13.3611207216         1.6097711781
C          2.0633875398        10.3417558588         4.2774853146
H          2.5983569039         9.6530101292         4.9065207198
H          1.8027754526        11.2678536711         4.7828370183
H          1.1732338855         9.8852966908         3.8833846632
          28
ANG Step:        360 Time:     7441.3426891852
C          4.5446777068        11.8999716093         2.0809022630
C          3.9101803080        11.1961671663         3.2664082448
C          4.7231516609        11.0533758944         4.3607114883
C          5.9822527961        11.6740460963         4.5895588327
C          6.5616211948        12.2551177184         3.4903072987
C          5.8204434870        12.4955429625         2.2949234339
H          4.3282976180        10.3863106971         5.1161382179
H          7.4881206998        12.7762420239         3.5432167407
O          3.7865196842        11.9920971885         0.9456991540
H          4.1643918983        12.6096233932         0.3024943957
O          6.2699508462        13.3021680726         1.2917885563
O          2.6140913477        10.8295612140         3.2677866491
C          6.8047274425        11.6311411978         5.8098209023
C          7.9363332894        12.4451662038         6.0906646356
H          6.4660054287        10.9463570853         6.5821357150
C          8.6508353833        13.5648953085         5.3729774651
H          8.4161317518        12.2303716184         6.9973199122
O          9.5849858704        14.0722850467         6.1830011286
H         10.0036307692        14.6795101893         5.5366552256
O          8.4916674380        14.0207471124         4.2805913443
C          7.3457359865        14.2025068360         1.5380194646
H          7.4320812465        14.7999010014         0.6324079201
H          7.1333637272        14.8315484083         2.4172327515
H          8.3002997933        13.6850276340         1.7609514418
C          1.9496380844        10.0523733941         4.2519371326
H          2.2109875305         8.9710686730         4.2134972817
H          2.2204882987        10.3694355804         5.2824179389
H          0.8657815131        10.1719702936         4.0788488597
          28
ANG Step:         42 Time:      868.1566470716
C          1.4200710406        13.3150693702         9.0635988011
C          2.8101339685        13.0658929916         8.7824169741
C          3.4088154746        11.7721454520         9.0197619675
C          2.6683380374        10.7404285642         9.5972197325
C          1.2515919236        10.8829390028         9.8113643623
C          0.6904918831        12.1975369803         9.6037538641
H          4.4424642066        11.6085442263         8.7240850690
H          0.7518034869        10.0504495784        10.3212164777
O          0.8384051690        14.5362792332         8.7338873369
H         -0.1300912201        14.4500049352         8.8990829672
O         -0.6164594684        12.5010415134         9.8154708389
O          3.6824660177        14.0048933444         8.3665556064
C          3.3883853553         9.4416686025         9.8482394586
C          2.9727039249         8.2567826541        10.3286179074
H          4.3605448645         9.4268654891         9.3535824369
C          1.6577521121         7.8848083077        11.1263179886
H          3.4694179557         7.3326110375        10.0864957144
O          1.6180176278         6.3395198446        11.2497304789
H          0.7815125913         6.1602151111        11.7597911808
O          0.8482407829         8.7048476127        11.5279602888
C         -1.4121238635        11.5740812147        10.5819252232
H         -1.6912148892        10.7678438392         9.9109806675
H         -0.9302902786        11.3091370547        11.5245696690
H         -2.3016311658        12.1194951679        10.9058901504
C          3.5957195981        15.4030436678         8.7439495095
H          3.3302128371        15.5324399725         9.8024213545
H          4.5841453035        15.8660806212         8.5892544873
H          2.9104794248        15.9250840568         8.0610583603
          28
ANG Step:         60 Time:     1240.2237815309
C          1.3843532610        13.3227143089         9.0533503220
C          2.7487722776        13.0568055294         8.8166659125
C          3.3697391918        11.7566126530         9.0345992877
C          2.6819965893        10.6858327442         9.5820807801
C          1.2971232872        10.9197225787         9.7932228593
C          0.7113226027        12.2429898337         9.6047981068
H          4.4501043355        11.7212132656         8.8773978195
H          0.7263273803        10.0640585298        10.1769769976
O          0.8658033308        14.5270766689         8.7140758143
H         -0.0845914818        14.4715447379         8.9733307194
O         -0.6271238166        12.5080927221         9.8195702953
O          3.6712936906        13.9724797909         8.3795433473
C          3.4449049509         9.4725720798         9.8632542862
C          2.8345400807         8.2290705612        10.3484223815
H          4.3753275758         9.3473525734         9.2914686879
C          1.7185114683         7.8505878695        11.0878189245
H          3.5917648015         7.4747232510        10.1650387459
O          1.6613751532         6.4556608636        11.1931754605
H          0.9662632656         6.1147943415        11.8111874550
O          0.8445375399         8.7634107018        11.4922261872
C         -1.4521188802        11.5804900095        10.5508352638
H         -1.6190652320        10.6399018167        10.0498931666
H         -0.8387868737        11.2502158242        11.3762569302
H         -2.4128407774        12.0464651573        10.7887353263
C          3.5898943346        15.3942312873         8.7432472305
H          3.2068245149        15.4536893037         9.7971528418
H          4.6075412233        15.8409183427         8.6366511834
H          2.8412449866        15.8250923785         8.1012156088
          28
ANG Step:         83 Time:     1715.6428977844
C          1.4160477085        13.2945887057         9.0421865753
C          2.7668362187        13.0634592707         8.8343531395
C          3.3220705824        11.7969662181         9.0596001814
C          2.7103088761        10.6815271099         9.5645408954
C          1.3227831767        11.0174114415         9.7688980042
C          0.6772244781        12.2460392247         9.6006705310
H          4.3997709729        11.8008487519         8.9048866890
H          0.6112716135        10.2200129151         9.9685927856
O          0.8679820233        14.5141044243         8.7055462169
H         -0.0340963321        14.5736766750         9.0405787009
O         -0.6284983592        12.5090389645         9.8108996126
O          3.6456631269        13.9337512024         8.4246119227
C          3.3623414579         9.4006719973         9.8997876660
C          2.9092202091         8.2495976772        10.2868786572
H          4.3480491766         9.3305090079         9.4376100662
C          1.7115717191         7.9855309299        11.0239227219
H          3.4808296277         7.3397590458        10.3230418312
O          1.6776313009         6.6301429999        11.1552107235
H          1.0218477520         6.5358030691        11.8644622236
O          0.8663893658         8.6685663586        11.4616511800
C         -1.4264653583        11.5351760309        10.5267054660
H         -1.6101876566        10.7183583995         9.8511300463
H         -1.1170956355        11.3337663317        11.5429108602
H         -2.3538478102        12.0953283733        10.6477575586
C          3.5155272273        15.3176521783         8.7357395570
H          3.2275451359        15.4552874346         9.8044651143
H          4.5626831420        15.6567840020         8.6198435240
H          2.9020113663        15.9279028095         8.0642862266
          28
ANG Step:        107 Time:     2211.7324103967
C          1.4023202903        13.3308994825         9.0451220778
C          2.7485827930        13.0260642130         8.8527622320
C          3.4347359682        11.7662764140         9.0870868977
C          2.6383249726        10.7552819703         9.6051924356
C          1.2540175149        10.9578140179         9.7591170150
C          0.6900410958        12.2650730403         9.5602625450
H          4.4554764117        11.6516589153         8.7348897790
H          0.6704438790        10.1046735057        10.1441587197
O          0.8561768427        14.5188581762         8.7030710520
H         -0.0204235659        14.5196278153         9.1186025309
O         -0.6125414643        12.4976592152         9.8248419148
O          3.6545606692        13.9416945100         8.4400445323
C          3.4145594316         9.5198485577         9.7715277016
C          3.0140226471         8.2120925619        10.2621089861
H          4.4707210006         9.6943743041         9.5866222243
C          1.7670715792         8.0024100266        10.9079616530
H          3.6784064923         7.4134022213        10.0273861382
O          1.6254927601         6.6850584281        11.1947103054
H          0.8618106618         6.6481992624        11.7766054048
O          0.7619723482         8.6958436218        11.4897184946