          28
ANG Step:       1867 Time:    38591.6300019689
C          1.7868298863        14.2946397814         9.6399411512
C          3.0938414028        13.8266952830         9.2712337902
C          3.3695215316        12.5503317322         8.8173650986
C          2.4191756953        11.6026293729         8.8393469757
C          1.0206837516        12.0233166352         9.1705738457
C          0.7262764090        13.3486817298         9.4605551803
H          4.3795284532        12.3144803323         8.6702901239
H          0.2252233278        11.3302332715         9.2951898040
O          1.5640183467        15.5445275182         9.9427875795
H          0.6194474684        15.5332727789        10.2488960813
O         -0.4195918732        13.8392254290         9.8248782179
O          4.1402302878        14.6834519231         9.4182655708
C          2.7365565511        10.1335600603         8.5008831033
C          2.8785274826         9.3143019050         9.6083689949
H          3.0887830638         9.8192357859         7.5382621538
C          2.2339349630         9.5410107108        10.8644854199
H          3.2900669719         8.3948919712         9.4661626373
O          2.5953756605         8.5052450586        11.7005235634
H          2.5178591740         8.9453264975        12.5971409382
O          1.6432846350        10.5555555531        11.2662337599
C         -0.9692276266        13.0657907059        10.9260496246
H         -1.6885093970        12.3167684581        10.5683210108
H         -0.0682012076        12.6025437212        11.4168199610
H         -1.5228463649        13.7212364990        11.5152847717
C          4.1507669665        15.9613287460        10.0488575437
H          3.7151876622        15.8797120705        11.0477995373
H          5.1986516840        16.1731132425        10.0645619132
H          3.6492242749        16.7484558079         9.4740035402
          28
ANG Step:       1879 Time:    38839.6747582751
C          1.8190383151        14.2630165195         9.5878551579
C          3.0975924385        13.8806239606         9.3128908764
C          3.3533092168        12.5704531104         8.8181106065
C          2.3656030629        11.6018929402         8.8114132012
C          1.0128965035        12.0426747042         9.1724266866
C          0.7819218920        13.3824488935         9.4573754265
H          4.3990716814        12.2491523639         8.6310673972
H          0.2047119740        11.3150814562         9.3954233156
O          1.5375572406        15.5438938655         9.9483616087
H          0.5619090112        15.5185313493        10.0373997061
O         -0.4544389407        13.8768259965         9.8480969836
O          4.1503049239        14.6999595459         9.4334949893
C          2.7015364559        10.1350691631         8.4924441059
C          2.9014722926         9.3256044322         9.6044737753
H          3.1810404206         9.9180690700         7.5251637391
C          2.2777407485         9.4852899359        10.8813696146
H          3.4843717387         8.3091687738         9.5189181615
O          2.6313766863         8.4728146451        11.7489299296
H          2.4127658588         8.8449630940        12.6035402069
O          1.6640325365        10.5810279644        11.2728503959
C         -0.9191439991        13.1137684999        10.9252282714
H         -1.5008834287        12.2651295303        10.5305299537
H         -0.1162120682        12.6802829420        11.5405965842
H         -1.5679778793        13.8269120362        11.5408563428
C          4.1664615420        15.9151909780        10.0595300893
H          3.6205947894        15.8834923671        11.0012562147
H          5.2106808091        16.2481155757        10.2671297697
H          3.6369149399        16.6539838142         9.4569954632
          28
ANG Step:       1888 Time:    39025.7083255047
C          1.8207948543        14.2678463509         9.5498831942
C          3.1422813937        13.9189106086         9.3321514466
C          3.3504071265        12.5751690079         8.8300322448
C          2.3129679122        11.5921047425         8.7781822266
C          1.0166058070        12.0558800564         9.1735690404
C          0.8186711346        13.3823838346         9.4508227724
H          4.3351632380        12.2758327933         8.5996816679
H          0.2828104049        11.3141040581         9.3315225884
O          1.5113884510        15.5417408023         9.9538273713
H          0.5233791978        15.5702335397         9.9052448934
O         -0.4713930666        13.9108230512         9.8576728235
O          4.1680569335        14.6815018384         9.4302102725
C          2.6731197205        10.1556234680         8.4942868783
C          2.9187908992         9.3082493270         9.6038224615
H          3.2062383873        10.0304871902         7.5708249116
C          2.3217020276         9.4848772296        10.8787224840
H          3.4930148090         8.4706516641         9.5195445792
O          2.6500248111         8.4542943176        11.7930741688
H          2.3113408824         8.7315429888        12.6852743987
O          1.6894590594        10.5696256832        11.2775058944
C         -0.9125875133        13.1484072081        10.9464762154
H         -1.4115540510        12.2441056286        10.5552040092
H         -0.1149411659        12.7582926628        11.6682093884
H         -1.5450472050        13.7594979845        11.5138055552
C          4.1719194982        15.9172585454        10.0880597792
H          3.5777882317        15.8843923283        10.9963358687
H          5.1510154253        16.2189807629        10.3542229780
H          3.6667915477        16.6210637895         9.4227209257
          28
ANG Step:       1897 Time:    39211.7418927343
C          1.8148049760        14.3204901884         9.5284109978
C          3.1837356336        13.9071437592         9.3263921206
C          3.3258036739        12.5693968527         8.8507212730
C          2.2890713879        11.6070977338         8.7493050577
C          1.0285452503        12.0581124652         9.1660946145
C          0.8068310972        13.3729101112         9.4493905528
H          4.3771788647        12.2924158829         8.5624393032
H          0.2518715312        11.2799235766         9.2324317862
O          1.4832891214        15.5384792643         9.9540361992
H          0.5202030268        15.6201865154         9.8363882528
O         -0.4587320612        13.9401544012         9.8557687247
O          4.2140169896        14.6621333407         9.4262295076
C          2.6436341197        10.1784698338         8.5084878943
C          2.9190618112         9.3119147880         9.6008192275
H          3.2338501365        10.0850014700         7.5873915741
C          2.3638960590         9.5186705665        10.8926784647
H          3.6220560720         8.4126234175         9.4405256043
O          2.6614420312         8.4461713083        11.8352943241
H          2.2114984533         8.6288255874        12.6590077550
O          1.7265619996        10.5271775194        11.2772597754
C         -0.9085679924        13.1587611154        10.9850886348
H         -1.3760012232        12.2514472098        10.6432217484
H         -0.1399096228        12.9339416732        11.6540793598
H         -1.6907065097        13.7608515950        11.5498907020
C          4.1559535680        15.9378344517        10.1214247697
H          3.5274605293        15.8632869995        11.0304513039
H          5.2325282796        16.1684004080        10.3829302839
H          3.7475914105        16.6651280465         9.4078279424
          28
ANG Step:       1909 Time:    39459.7866490405
C          1.8129819042        14.3754908779         9.5121937821
C          3.1806528995        13.8564734678         9.2966589582
C          3.3134320098        12.5503710335         8.8722877716
C          2.3106163039        11.6516817644         8.7364242535
C          1.0100441776        12.0462011066         9.1398919059
C          0.7540493319        13.3831375011         9.4546848701
H          4.2958040481        12.2898606361         8.6009833709
H          0.2098654234        11.3584958471         9.1106470634
O          1.4532138954        15.5573774327         9.9485425832
H          0.4700144369        15.6144852220         9.8592482934
O         -0.4213237894        13.9527302059         9.8524531883
O          4.3019777127        14.6536439198         9.4295954014
C          2.6131742611        10.1982296953         8.5213370947
C          2.9320794556         9.3175652894         9.5895623778
H          3.2004957585        10.0407704590         7.6336330964
C          2.4418900736         9.5361088679        10.9307706104
H          3.5369078501         8.5267187468         9.3834423875
O          2.6729778359         8.4506887202        11.8660349191
H          2.0546579302         8.6169253126        12.5909412488
O          1.7677119609        10.4715159780        11.2837587002
C         -0.9389619908        13.1933122577        11.0430959624
H         -1.3334846897        12.1984768086        10.7458273954
H         -0.0197933480        13.1005036022        11.7211044446
H         -1.7516561903        13.7192277090        11.4518163019
C          4.1512695492        15.9626751802        10.1590059420
H          3.5132007153        15.8530421887        11.0246556516
H          5.1704412994        16.0914608539        10.3922451010
H          3.8564886751        16.7571005904         9.4744623566
          28
ANG Step:       1918 Time:    39645.8202162701
C          1.8120612313        14.3631580359         9.5026838632
C          3.1644793194        13.8624129758         9.2779588651
C          3.3317382241        12.5481467476         8.8830537002
C          2.3230422820        11.6616251117         8.7507268082
C          0.9764552483        12.0680884092         9.1096056189
C          0.7373970604        13.3966719201         9.4511248027
H          4.3695056063        12.1985253611         8.6459856562
H          0.1349400836        11.3523720960         9.0457162638
O          1.4377325873        15.5936132448         9.9403502564
H          0.4512431161        15.5348705652         9.9599728803
O         -0.4102089953        13.9422917912         9.8614495068
O          4.3447035749        14.6472586225         9.4363968476
C          2.5965640652        10.2064194734         8.5242794604
C          2.9325294372         9.3491820278         9.5956568097
H          3.1438286415         9.9648645534         7.6004815557
C          2.5253993679         9.4968208059        10.9467508663
H          3.5464412796         8.4095602879         9.3219555585
O          2.6824192866         8.4637410698        11.8739719486
H          1.9508911893         8.6640291308        12.5030658127
O          1.7771738126        10.4589422608        11.3039046569
C         -0.9428630167        13.2189821738        11.0768682032
H         -1.2029193479        12.2121511149        10.8157524355
H         -0.1509752832        13.1957919756        11.7386607485
H         -1.8307439909        13.8213708405        11.4174208508
C          4.1630285505        15.9579081779        10.1669332925
H          3.4916153475        15.8599073062        11.0415462842
H          5.2270425838        16.1305990833        10.5210527714
H          3.8575470135        16.7984743069         9.5260538942
          28
ANG Step:       1930 Time:    39893.8649725763
C          1.8054957661        14.3353109421         9.5057502967
C          3.1769788196        13.9280923710         9.2618052810
C          3.3961840812        12.5558450784         8.8879990209
C          2.3042137677        11.6409095262         8.7932380065
C          0.9301447394        12.1184298778         9.0538045206
C          0.7614574681        13.4009311953         9.4335355581
H          4.3735181256        12.1547648894         8.7928504610
H          0.1645571696        11.3934286942         9.0050745097
O          1.4313955504        15.6280418791         9.9161265317
H          0.4783826778        15.4316001003        10.1469194419
O         -0.4350723971        13.9179224005         9.8933844040
O          4.3429924830        14.6410381181         9.4525357116
C          2.5873592496        10.2069865978         8.5246263005
C          2.9579129358         9.3629307317         9.6025101936
H          2.9729580114         9.9379543279         7.5583126022
C          2.5979425228         9.4676923361        10.9588810416
H          3.3835545423         8.4744366324         9.3302936517
O          2.6978239484         8.4797961456        11.8754057888
H          1.9356551227         8.7266024067        12.3895467252
O          1.7946945246        10.4436271966        11.3342906854
C         -0.9542260510        13.2791261545        11.0930806020
H         -1.1099726328        12.2012480386        10.8756862937
H         -0.2039769865        13.3213437397        11.9880560111
H         -1.8047310503        13.8472077099        11.3416604337
C          4.2146699322        15.9298754384        10.1784119865
H          3.4951891832        15.8250535821        10.9817204294
H          5.1262961721        16.1969047212        10.6379788615
H          3.8296717969        16.7192742180         9.5364434221
          28
ANG Step:       1940 Time:    40100.5689361648
C          1.8134794691        14.3557486795         9.5221351440
C          3.2163991500        13.9648862463         9.2472479989
C          3.4089580181        12.5712861035         8.8980030375
C          2.2956142259        11.6401335850         8.8330393162
C          0.9326697393        12.1448536035         8.9971833688
C          0.7714288564        13.4069509689         9.4282232643
H          4.4558742883        12.1700540173         8.9015171647
H          0.1103240086        11.4004713884         8.9909936540
O          1.4354392027        15.6193282624         9.8867484876
H          0.5378215622        15.4563216963        10.2713898781
O         -0.4627946919        13.8997877558         9.9234775323
O          4.3108813217        14.6475152800         9.4733051207
C          2.5828989769        10.2027411585         8.5437852900
C          2.9823200742         9.3675459207         9.6054769637
H          2.8295557352         9.9726663166         7.4937031454
C          2.5964136525         9.5084878625        10.9571426809
H          3.3628971380         8.3193487373         9.2783543521
O          2.7218718833         8.4784859886        11.8729309646
H          1.9391681538         8.7566473622        12.4367220911
O          1.8275026793        10.4203338623        11.3538785617
C         -0.9354016022        13.3207322355        11.1139948833
H         -1.1277527170        12.2743860494        10.9737587191
H         -0.3713930902        13.4575025358        11.9730926842
H         -1.9298433488        13.8396793126        11.2926572814
C          4.2433321668        15.8936450853        10.1854623586
H          3.4762738770        15.7538132087        10.9646701445
H          5.2214828340        16.2064795213        10.6591850250
H          3.8536211111        16.6321308198         9.4706256745
          28
ANG Step:       1951 Time:    40327.9432961121
C          1.8389171722        14.3969941274         9.5364225077
C          3.2284142850        13.9492268793         9.2328893921
C          3.3839999294        12.5894424286         8.9188098375
C          2.3187562109        11.6674460661         8.8603949691
C          0.9609890028        12.1448137047         8.9459268371
C          0.7541990656        13.4260445988         9.4424849980
H          4.3899307840        12.2570514036         8.9588737974
H          0.1210134402        11.4979752876         8.9505361206
O          1.4514274302        15.5929805191         9.8584329506
H          0.5682915953        15.5555438274        10.2819316930
O         -0.4706665048        13.8913148032         9.9359298051
O          4.2908061541        14.6623458904         9.4971984560
C          2.5774659148        10.2078670431         8.5751128543
C          3.0153128168         9.3296551654         9.5969022245
H          2.7306374409        10.0319524540         7.5298747939
C          2.5700493367         9.5500551251        10.9390585193
H          3.3210810641         8.3933696751         9.3404662577
O          2.7523201986         8.4712961604        11.8669294571
H          2.1074368001         8.7016654506        12.5357991668
O          1.8576544368        10.4221462177        11.3769071567
C         -0.9614438096        13.3614282380        11.1404655993
H         -1.1324702876        12.2564923455        11.0973647784
H         -0.3051757050        13.6525930432        12.0688433739
H         -1.9440228151        13.7460151401        11.2253166545
C          4.2552163987        15.8636848868        10.1973905617
H          3.5375148267        15.7732939065        11.0019574512
H          5.2474258065        16.0585184011        10.5097818513
H          3.9529268194        16.6142160176         9.4698120853
          28
ANG Step:       1960 Time:    40513.9768633418
C          1.8503263638        14.3893391927         9.5330261016
C          3.1941891713        13.9257945393         9.2357298637
C          3.3496078460        12.6060363428         8.9386863681
C          2.3441802682        11.6884295956         8.8647309012
C          0.9916094686        12.1659676281         8.9350849281
C          0.7453418131        13.4334616017         9.4579795128
H          4.4088341349        12.2501602343         8.9404785575
H          0.1188410309        11.4830510886         8.8664493648
O          1.4757768402        15.5959055617         9.8465497924
H          0.5476492996        15.5898839223        10.1791592834
O         -0.4618700821        13.8928689635         9.9264806598
O          4.2905503002        14.6602973156         9.5064194764
C          2.5748645648        10.2256183999         8.6087657800
C          3.0237291489         9.3145412784         9.5996900046
H          2.7559713414        10.0414644954         7.5368912617
C          2.5570109432         9.5303251167        10.9199708444
H          3.3964429165         8.2547039476         9.3597198063
O          2.7882537570         8.4641732520        11.8487132154
H          2.2519731776         8.6765395076        12.6566482819
O          1.8640255011        10.4646261300        11.4005259907
C         -0.9832247699        13.3766621576        11.1859478299
H         -1.0014230606        12.3040111398        11.2093671412
H         -0.3746735267        13.7326263713        11.9367975571
H         -2.0299466625        13.7772059843        11.2257295782
C          4.2532234950        15.8551934015        10.2008994975
H          3.6096164666        15.8695075830        11.1140294787
H          5.3534488019        15.9446668579        10.4550644769
H          4.0074964470        16.7049213261         9.5382153891
          28
ANG Step:       1973 Time:    40782.6920160068
C          1.8198054822        14.3358022368         9.5201957029
C          3.1310012242        13.9368505123         9.2757463111
C          3.3570132363        12.6061277150         8.9566487135
C          2.3449619413        11.6885881954         8.8545187970
C          1.0085207471        12.2087790511         8.9652786094
C          0.7601593998        13.4209883397         9.4754458149
H          4.3620600238        12.2467408468         8.8575258149
H          0.2678727418        11.4829265623         8.7323431498
O          1.5245127581        15.6332832628         9.8425345868
H          0.5400522289        15.5469369150         9.9090673305
O         -0.4518401410        13.9024149501         9.9002657659
O          4.2728370848        14.6257833474         9.4972552414
C          2.5904042094        10.2480677115         8.6384341333
C          3.0085233285         9.2904973044         9.6138591256
H          2.9197301799        10.0439398188         7.6339034606
C          2.5188111050         9.4811694502        10.9433490860
H          3.4247584196         8.3941016339         9.3823144046
O          2.8483055727         8.4541365942        11.8063925508
H          2.5222252360         8.7459295463        12.6978146938
O          1.8823776477        10.5303477483        11.4145767761
C         -1.0194695721        13.3996746341        11.2220429182
H         -0.8112408622        12.3105142632        11.3192361693
H         -0.3820134310        13.9322582540        12.0441971311
H         -2.0100880088        13.7671241378        11.2725018090
C          4.2889817818        15.8845082376        10.2223819256
H          3.7598416176        15.9198268071        11.1667301053
H          5.3106810457        15.9344032318        10.4875107521
H          4.0097446428        16.7678977271         9.6628847648
          28
ANG Step:       1982 Time:    40968.7255832364
C          1.7834342070        14.3364686069         9.5268535628
C          3.1212495952        13.9424045986         9.3130908352
C          3.3767365406        12.5930721173         8.9597485845
C          2.3393218815        11.6850603082         8.8489716664
C          1.0152210559        12.2049946614         8.9904769235
C          0.7626459019        13.4165586585         9.4956094804
H          4.4270239006        12.2598799273         8.8181885885
H          0.2474139580        11.4723742392         8.6957005041
O          1.5552980748        15.6456990379         9.8374354658
H          0.5638140675        15.6160915064         9.7576146177
O         -0.4596820643        13.9101960599         9.8865798848
O          4.2421521721        14.6099579102         9.4893761945
C          2.6147906171        10.2451177814         8.6450320755
C          2.9607055178         9.3147430727         9.6417444503
H          3.0680341527        10.0541444186         7.6547749948
C          2.4805206975         9.4793804397        10.9769191210
H          3.5249420298         8.3512368961         9.3044891693
O          2.8900646655         8.4482297100        11.7808759250
H          2.7029567856         8.8050161719        12.6519475807
O          1.9131817513        10.5460362204        11.4070318783
C         -0.9918676077        13.4290890207        11.2416676362
H         -0.7884423904        12.3889496820        11.3507669880
H         -0.5388487919        13.9589536242        12.0010994930
H         -2.0881617901        13.6985141898        11.2647737804
C          4.3286522979        15.9083324755        10.2425212938
H          3.7452705158        15.8211454112        11.1898642855
H          5.4163752686        16.0220209808        10.5324109228
H          3.9649353711        16.7584732896         9.6413574619
          28
ANG Step:       1994 Time:    41216.7703395426
C          1.7706918106        14.3812466673         9.5578318635
C          3.1332262667        13.9056458011         9.3551678212
C          3.3951105002        12.5720280741         8.9601932796
C          2.3606598526        11.6839228309         8.8484083549
C          1.0108060725        12.1437736932         9.0110565024
C          0.7392773604        13.4281464009         9.5349908398
H          4.4360073005        12.3193558484         8.8287292728
H          0.1530037843        11.5343814593         8.7955476246
O          1.5769789293        15.6481726204         9.8222237170
H          0.6375365006        15.8909408960         9.7148199837
O         -0.4915682017        13.9166862307         9.8857044975
O          4.2139516350        14.6324496079         9.4924185616
C          2.6557738436        10.2289270384         8.6221578352
C          2.8893110066         9.3470166860         9.6710511721
H          3.1972992655        10.0751691995         7.7092663747
C          2.4526380579         9.5034733244        10.9837579850
H          3.4371566532         8.5487023707         9.3809239034
O          2.9375561594         8.4434730722        11.7660359003
H          2.9383372574         8.8121603193        12.6984874940
O          1.9568967189        10.5443019771        11.4019955256
C         -0.9610699302        13.4799434249        11.2229241449
H         -0.7551487910        12.3916537632        11.3698786812
H         -0.5492758649        14.1364866958        12.1004388427
H         -2.0240750570        13.5193995128        11.1569271103
C          4.3773101897        15.9177271835        10.2711801731
H          3.7477965301        15.7143048980        11.1136091944
H          5.4055547376        16.0847123306        10.4537606691
H          3.9370832853        16.6592376185         9.6291216490
          28
ANG Step:       1233 Time:    25486.5987104594
C          9.8819561859        -3.7266619421        -6.3951290753
C          9.0381116686        -2.9840543849        -7.2998735924
C          7.7202389441        -2.6786716114        -6.9779881668
C          7.1763313803        -2.9997222963        -5.6867138468
C          7.9540254510        -3.8467933094        -4.8769768692
C          9.3006029734        -4.1134503224        -5.1730432145
H          7.1363990434        -2.1478708682        -7.7975157518
H          7.6375485499        -4.1576094965        -3.8856516575
O         11.1923122294        -3.9711414535        -6.7293952173
H         11.5868072815        -4.2233702029        -5.8597092782
O         10.0286160017        -4.8152244037        -4.3128865803
O          9.4925300967        -2.4099652988        -8.4719762749
C          5.6502298668        -3.0639801460        -5.4220447166
C          5.0408753431        -4.3537893559        -5.5342647475
H          5.0565678940        -2.2237815080        -5.6172777077
C          5.8333817701        -5.5278796073        -5.6257111973
H          4.0162647356        -4.5375183731        -5.4708858531
O          5.0709044848        -6.6710089769        -5.4718770811
H          5.5840527280        -7.5249723876        -5.4771736295
O          7.0835412319        -5.7214272877        -5.8447649958
C          9.4285744187        -5.6277508014        -3.3055846674
H          8.5955207498        -6.1889014066        -3.7430197134
H         10.1642117146        -6.3822957755        -2.9673144978
H          9.1009375272        -5.0413230005        -2.4283796859
C         10.3486037416        -3.2859790105        -9.3455380820
H          9.8976449866        -4.3000211678        -9.2783626094
H         10.2213666486        -2.7667166022       -10.2759055937
H         11.4177750947        -3.1966551016        -9.0636362218
          28
ANG Step:       1242 Time:    25672.6322776890
C          9.8835223948        -3.7338762550        -6.3870079420
C          9.0492435008        -2.9757171074        -7.2857219007
C          7.7102710781        -2.6743298327        -6.9801185460
C          7.1484961682        -3.0170442429        -5.6967832465
C          7.9516657723        -3.8207041920        -4.8739310586
C          9.2879629853        -4.0970712204        -5.1720858519
H          7.1250620547        -2.2063193324        -7.7002332139
H          7.6747432504        -4.2135578811        -3.9206733203
O         11.2115936829        -3.9823310117        -6.7335028310
H         11.6689571920        -4.0724613339        -5.8862744612
O         10.0754930731        -4.8140117361        -4.3189734002
O          9.5121019999        -2.4634804098        -8.4882135573
C          5.6327469496        -3.0894340932        -5.3885010266
C          5.0389898100        -4.3855208404        -5.5414870911
H          4.9875380410        -2.1816410915        -5.5948950591
C          5.8013922432        -5.5084217911        -5.6524192590
H          3.9232774233        -4.4742975346        -5.3849519735
O          5.0714813482        -6.6571329808        -5.5143665553
H          5.6725979199        -7.3830939508        -5.3836734630
O          7.0622532806        -5.7194664972        -5.8541305678
C          9.4618861816        -5.6054160651        -3.3208980304
H          8.6558553356        -6.1568295842        -3.8262737414
H         10.2292592343        -6.2976468737        -3.0235807579
H          9.0412941986        -4.9984572586        -2.5315622681
C         10.3453128951        -3.2678182879        -9.3086630627
H          9.8874439201        -4.2217777164        -9.2167684416
H         10.2304005854        -2.7864221439       -10.2995416479
H         11.3977011808        -3.2865466953        -9.0596366424
          28
ANG Step:       1254 Time:    25920.6770339952
C          9.8796929898        -3.7281971458        -6.3879405788
C          9.0867122952        -2.9552800066        -7.2795415145
C          7.6831111593        -2.6733247518        -6.9237888388
C          7.0809590979        -3.0474587651        -5.7597701237
C          7.9631798107        -3.7904309115        -4.8640278632
C          9.3065961012        -4.0900395792        -5.1872595076
H          7.0242773167        -2.1872042907        -7.7104567366
H          7.5217716398        -4.1692681289        -3.9505449514
O         11.2178384468        -3.9924362618        -6.7252292669
H         11.7990032150        -3.9468672799        -5.9434799539
O         10.1502515141        -4.7978536722        -4.3375518941
O          9.5209364476        -2.5276237460        -8.4717875499
C          5.6230146237        -3.1153921925        -5.3739041789
C          5.0310708789        -4.3617721109        -5.5340707885
H          5.0434055392        -2.2510034950        -5.4846441410
C          5.7754563478        -5.5336577470        -5.6942281028
H          4.0184491188        -4.4399858309        -5.3257249089
O          5.0592630676        -6.6525156814        -5.5685756449
H          5.8368386995        -7.2240768463        -5.3295398686
O          7.0275629440        -5.7020511569        -5.8555479536