          28
ANG Step:       1717 Time:    35491.0705481417
C          4.3792437046        11.9386663445         2.8764553867
C          4.2175713046        11.4994754712         4.2622668935
C          5.3484210755        11.3633919149         5.0544642217
C          6.6803130697        11.6168695778         4.6093471201
C          6.8287184092        12.0623239779         3.2589102451
C          5.7075235174        12.2949791882         2.4405024971
H          5.2786900072        10.8288409239         5.9937044296
H          7.7771403721        12.3479667788         2.8076847850
O          3.2903123304        12.1383521871         2.1181116220
H          3.4045906713        12.6889636332         1.3192096708
O          5.7439253109        12.8575223303         1.2867113224
O          2.9262247022        11.2631117406         4.6470750860
C          7.8462845597        11.3662882411         5.4796389750
C          8.2016609786        12.3499353153         6.4019571889
H          8.2582473675        10.3268939697         5.5739327478
C          7.5947611534        13.5429925560         6.6621615113
H          9.0140756445        12.0913955189         7.0672342212
O          8.1334832148        14.2281221814         7.7315306746
H          7.4799715735        14.9041974427         7.9675658023
O          6.6168231518        14.0758036084         6.0578793928
C          6.9443012214        13.1622870647         0.6535183189
H          7.4868919810        14.0166644312         1.2332945657
H          7.5749190635        12.3345636123         0.5825571809
H          6.6152630912        13.4777342899        -0.3207720870
C          2.4642924703        12.0444684069         5.7761675508
H          2.2585317333        11.4233242445         6.5764440981
H          3.2318810801        12.6558555274         6.1092528317
H          1.6312030366        12.6310629875         5.5449425027
          28
ANG Step:       1726 Time:    35677.1041153714
C          4.3802276295        11.9380130964         2.8928434325
C          4.2035610078        11.4931352048         4.2690397717
C          5.3407200971        11.3556762953         5.0501555253
C          6.6759067811        11.6163657284         4.6086561454
C          6.8434006085        12.0938450359         3.2700598733
C          5.6962036596        12.2692809637         2.4540687949
H          5.3666481950        10.7801933218         5.9623524134
H          7.8466410107        12.3816340580         2.9751095335
O          3.2805430274        12.1240277488         2.0995470022
H          3.5484126543        12.7137768326         1.3588334671
O          5.7344788718        12.9023937518         1.2905286082
O          2.9382261213        11.2666082622         4.6698822198
C          7.8221671715        11.3576877138         5.4618279566
C          8.1986226679        12.3822417291         6.3836197904
H          8.2152006925        10.3665909169         5.5208224227
C          7.6016634366        13.5595325960         6.7002750167
H          9.0982566930        12.0640682832         6.9251499075
O          8.1284551686        14.2139617951         7.7317475168
H          7.4615258500        14.8656376859         8.0034241578
O          6.6128091578        14.0807799552         6.0948449519
C          6.9462946762        13.1306802410         0.6349214021
H          7.4760465122        13.8708436498         1.0966877114
H          7.5974784832        12.2002532355         0.5991112162
H          6.6513281814        13.4154970694        -0.3911781864
C          2.4764513123        12.0492562139         5.7766830631
H          2.1752532587        11.3142418365         6.6359079971
H          3.2680732630        12.7915029531         6.2523827611
H          1.5466946405        12.6501204057         5.4933559271
          28
ANG Step:       1738 Time:    35925.1488716775
C          4.3542241291        11.9388249804         2.9306009628
C          4.2019637215        11.4907747432         4.2612478075
C          5.3306415178        11.3194234947         5.0398356849
C          6.6500647252        11.6199431562         4.5660022912
C          6.8343991547        12.1306286805         3.2961402526
C          5.7232871392        12.2490397979         2.4965887751
H          5.2640907662        10.8699070768         6.0212488208
H          7.8612948374        12.4218937709         3.1226640017
O          3.2940526092        12.1083756170         2.0916671427
H          3.7459304362        12.6556605966         1.3828577111
O          5.6991168195        12.9542084864         1.2838316377
O          2.9531701983        11.2766531302         4.7014760074
C          7.7936925505        11.3838881263         5.4499671503
C          8.2354339330        12.3504123996         6.3522251055
H          8.2121922521        10.3382187947         5.4415353639
C          7.5701536681        13.5928639079         6.7080032212
H          9.1707786540        12.1340279745         6.8520203725
O          8.1396022544        14.2144031244         7.7691565411
H          7.4621237733        14.8616738308         7.9904033286
O          6.5987255522        14.0838415399         6.1430309387
C          6.9626980975        13.0654247560         0.5827657572
H          7.6154061571        13.9257167057         1.0506021380
H          7.4895249342        12.1539318581         0.6180618979
H          6.7673914065        13.3437050049        -0.4454370052
C          2.4797024055        12.0585974186         5.8199272790
H          2.1318407799        11.3669898771         6.4950027287
H          3.1615489171        12.7266041752         6.1917477649
H          1.6424017057        12.5466460338         5.4206183277
          28
ANG Step:       1748 Time:    36131.8528352660
C          4.3369431647        11.9400498053         2.9552672730
C          4.2037090889        11.4868132419         4.2625438385
C          5.3236726149        11.2805874912         5.0256268397
C          6.6132961895        11.6114647300         4.5529438840
C          6.8205128724        12.1562200719         3.3142104980
C          5.7392403877        12.2747646134         2.5001355392
H          5.1096499709        11.0401143028         6.0756265192
H          7.8158417160        12.4950782886         3.0626750668
O          3.3380456704        12.1035323445         2.0966043059
H          3.7462635442        12.5290749048         1.3255605811
O          5.6727843033        12.9777989691         1.2863040306
O          2.9644151243        11.2825646748         4.7239239993
C          7.7795885379        11.4018118024         5.4369603122
C          8.2688120833        12.3335453135         6.3392963606
H          8.2023302231        10.4386126964         5.3644072902
C          7.5719979587        13.5678194681         6.6903374059
H          9.2049868943        12.1948477323         6.8869426118
O          8.1556039242        14.2270799025         7.8193546518
H          7.5024539471        14.9412620042         7.9960453534
O          6.5603786837        14.0949230525         6.1726095622
C          6.9844593040        13.0394711702         0.5506274574
H          7.5793238683        13.7632023340         0.9507437700
H          7.4464325731        12.0058819485         0.6517000797
H          6.7871034864        13.2775000710        -0.5037708813
C          2.4669255171        12.0504730398         5.8340329656
H          2.0652338682        11.3007203251         6.6326616121
H          3.2954706446        12.7939739524         6.2238828483
H          1.5993379247        12.6170267175         5.3535765168
          28
ANG Step:       1760 Time:    36379.8975915722
C          4.3739086681        11.9531867559         2.9481140722
C          4.1922722831        11.4752578930         4.2779481669
C          5.3015028720        11.2474876657         5.0200805258
C          6.5861360726        11.5931266678         4.5903035601
C          6.8010502261        12.1863129358         3.3060456140
C          5.7042616980        12.3493398700         2.4718115785
H          5.1139137211        11.1602741464         6.0610468969
H          7.7486076861        12.5681110875         2.9613411074
O          3.3931823292        12.1001841459         2.1090722976
H          3.7056179253        12.3737958214         1.2039946048
O          5.6688120953        12.9841014430         1.2926085717
O          2.9643664163        11.2801071813         4.7472595189
C          7.7719975909        11.4199548144         5.4212377749
C          8.2868345839        12.3599800810         6.3437554328
H          8.3098376435        10.4370364111         5.2351786371
C          7.5937255734        13.5287324220         6.6799391603
H          9.1853773380        12.1564286429         6.9202229591
O          8.1694307868        14.2359716569         7.8674289067
H          7.6066633487        15.0172480887         7.9620709702
O          6.5147170739        14.0969410274         6.2050214997
C          6.9753439996        12.9739075015         0.5200219556
H          7.6883307530        13.7695440760         0.9941489116
H          7.3869746096        12.0203943243         0.6245102671
H          6.7122725084        13.1774405380        -0.5176509295
C          2.4479494776        12.0501140231         5.8497768168
H          2.1332789108        11.4630239217         6.6364903534
H          3.2002925319        12.6437180811         6.2238090957
H          1.6743782477        12.6690126470         5.5134254113
          28
ANG Step:       1769 Time:    36565.9311588018
C          4.4319829449        11.9689898404         2.9282810553
C          4.1789168928        11.4694055273         4.2820088442
C          5.2852836264        11.2369483816         5.0315270630
C          6.5882740953        11.5956664983         4.6087342050
C          6.7647258994        12.2037683063         3.2886192634
C          5.6717254278        12.4098370970         2.4722845096
H          5.2110542403        11.0957004624         6.1215924608
H          7.7399496733        12.5709835609         2.9818248864
O          3.4133450313        12.0965710348         2.1104578724
H          3.7188004548        12.2745409846         1.2171412627
O          5.6851805934        12.9830393748         1.2787463942
O          2.9446863348        11.2722485477         4.7598785914
C          7.7913795445        11.4194222482         5.4244664259
C          8.2826027197        12.3806609638         6.3416477419
H          8.3488227223        10.5586370686         5.1759246562
C          7.5819937749        13.5514389783         6.6953278842
H          9.1612443377        12.0879803295         6.9206466259
O          8.1768908247        14.2262983360         7.8819979713
H          7.6561603418        15.0541636792         7.8886112057
O          6.5100633329        14.0728472785         6.2357320013
C          6.9518773161        12.9442705981         0.5225041732
H          7.6041340961        13.6274589750         0.8893029786
H          7.4162227920        11.9123000024         0.5960707674
H          6.6451224075        13.1473402345        -0.5045530471
C          2.4460918056        12.0523032331         5.8501503447
H          2.0999232844        11.3868426816         6.7356752643
H          3.3120856679        12.6993894324         6.3114090766
H          1.6064713282        12.7695109016         5.5810693978
          28
ANG Step:       1782 Time:    36834.6463114668
C          4.4536108973        11.9812488377         2.9233079257
C          4.1761728544        11.4723260939         4.2796581975
C          5.2938382746        11.2383335282         5.0811415009
C          6.5988170894        11.6280718924         4.5901398461
C          6.7139147542        12.2212730487         3.2954496237
C          5.6786487885        12.4870284994         2.5040818058
H          5.2692637899        10.8444103122         6.0668607240
H          7.7201638730        12.5150135826         3.0775545012
O          3.4159129879        12.0831115436         2.1066308693
H          3.7887850223        12.2534136503         1.2202204766
O          5.7140741599        12.9817610342         1.2296714425
O          2.8970822182        11.2630035411         4.7590259753
C          7.8193404527        11.4288404370         5.4480685142
C          8.2584939176        12.4016457895         6.3317746006
H          8.5130899950        10.5932790316         5.1082697085
C          7.5675217116        13.6095120935         6.7573270074
H          9.1363672490        12.0949960517         6.9061612997
O          8.1740239512        14.1999591699         7.8685778143
H          7.7430000940        15.0847315186         7.8348658187
O          6.5220893355        14.0221051293         6.2797101673
C          6.8924129603        12.8694697712         0.5227642972
H          7.6689934133        13.6807606529         0.8514192223
H          7.3352331640        11.9227652847         0.5535366915
H          6.6062451353        13.1362484364        -0.5074306368
C          2.4640396440        12.0773374102         5.8992023176
H          2.1025261042        11.3632808284         6.5541006521
H          3.2519814818        12.6274298110         6.2693963324
H          1.6812492607        12.6867490727         5.5798856202
          28
ANG Step:       1792 Time:    37041.3502750553
C          4.4041096562        11.9876325020         2.9480245380
C          4.1859174998        11.4779232824         4.2966232890
C          5.3209482413        11.2521285763         5.0972650459
C          6.5961235186        11.6499997105         4.5871758514
C          6.7227542708        12.2379592913         3.3374261874
C          5.6941542675        12.5349169326         2.5105678948
H          5.2225115532        10.6311143585         6.0240477686
H          7.7449561744        12.5021693602         3.0672618670
O          3.4097627253        12.0663944991         2.0959687269
H          3.7990280941        12.3312682113         1.2220261512
O          5.7110765893        12.9764274199         1.2076849990
O          2.8746907864        11.2642643133         4.7346984856
C          7.8280828004        11.4245872430         5.4493013405
C          8.2414935356        12.4315966381         6.3429869273
H          8.5245326020        10.7203939792         5.1307809667
C          7.5967203885        13.5961242442         6.8063643230
H          9.1539443215        12.2018874050         6.8872207026
O          8.1661856798        14.1902682718         7.8497298451
H          7.8360941763        15.0913420823         7.9050912333
O          6.5086350797        13.9987042780         6.3034973788
C          6.8778339240        12.8490435699         0.5011612410
H          7.5853457534        13.5365292862         0.7976606639
H          7.3021334078        11.7835689402         0.5590511941
H          6.6335256044        13.0846942848        -0.5270957906
C          2.4827309914        12.0763958948         5.9189638599
H          2.0406561937        11.2697984896         6.6190447621
H          3.3805289349        12.6913727184         6.3478536976
H          1.6375056146        12.7282454104         5.4928325282
          28
ANG Step:       1803 Time:    37268.7246350026
C          4.3545848891        12.0164416152         2.9842938745
C          4.1913475299        11.4868055712         4.3267598873
C          5.3360285924        11.2566314068         5.0861855446
C          6.5972181234        11.6567915185         4.6314736917
C          6.7707977481        12.2830959058         3.3679859263
C          5.6820814631        12.5503896282         2.5188729722
H          5.2114066629        10.6143516819         5.9079939515
H          7.7636252038        12.5185513729         3.0345930226
O          3.3912314655        12.0448080365         2.0760959118
H          3.7617545482        12.4438175748         1.2784406827
O          5.6755422229        12.9668022306         1.2157968674
O          2.8814177419        11.2777865854         4.7009004602
C          7.8103120585        11.4426046963         5.4542067974
C          8.2491040022        12.4477700352         6.3638357238
H          8.5985835360        10.7059571696         5.0990744932
C          7.5886492617        13.5501603929         6.8105042321
H          9.2303664635        12.3138445434         6.8277263494
O          8.1775576774        14.1955355062         7.8544537914
H          7.8465585634        15.1058703193         7.9700066609
O          6.4906867035        13.9826374881         6.3319294496
C          6.8884031429        12.8013467524         0.4480644811
H          7.7182154237        13.5379029847         0.8594742221
H          7.2116921163        11.8062635136         0.5653616009
H          6.6527913979        13.0024647401        -0.6110149171
C          2.4953452886        12.0591686887         5.9253708038
H          2.0935904591        11.4371790596         6.6533502381
H          3.2792868009        12.5810208798         6.3430258150
H          1.7659571552        12.7237837744         5.5837704979
          28
ANG Step:       1814 Time:    37496.0989949500
C          4.3433752113        12.0695457082         3.0061814393
C          4.1830663531        11.5073858345         4.3329062757
C          5.3247987595        11.2497396305         5.0514001110
C          6.6172589809        11.6717640769         4.6750434314
C          6.7932881374        12.3465551830         3.3712166909
C          5.6632916656        12.5216301084         2.5564737688
H          5.2519638838        10.6690995325         6.0092394538
H          7.8169434860        12.5758972469         3.0474872371
O          3.3630221593        12.0217274594         2.0667034782
H          3.7383520786        12.5620953642         1.3057755696
O          5.6361698895        12.9556476225         1.2340454313
O          2.9065436466        11.3009010047         4.6855363079
C          7.8095820785        11.4612520643         5.4787676168
C          8.2926762588        12.4189231584         6.3686810575
H          8.4736974004        10.7557371620         5.0995636015
C          7.5258551213        13.5344267357         6.7944338296
H          9.3023930404        12.3486036936         6.7349757712
O          8.2074459395        14.2078870584         7.8779846053
H          7.7300801291        15.0550237562         7.9355468119
O          6.4740402798        13.9673552488         6.3640777795
C          6.9100350612        12.7748803396         0.4088833795
H          7.6586516800        13.3786276880         0.7847113028
H          7.2096995809        11.6843800286         0.5693898422
H          6.6556277061        12.9618358422        -0.6161998866
C          2.5075207884        12.0246607445         5.9014801693
H          2.0694713344        11.3957224744         6.7678014809
H          3.4314892864        12.5702614362         6.3596706905
H          1.7494276983        12.8629786104         5.6399711944
          28
ANG Step:       1824 Time:    37702.8029585385
C          4.3463155736        12.1159269748         3.0047622759
C          4.1763161453        11.5369166320         4.3056131431
C          5.3135597693        11.2308908961         5.0411909056
C          6.6343373716        11.7107336270         4.6741264391
C          6.7805803995        12.3928134196         3.3803567894
C          5.6616064467        12.4861633917         2.5863294682
H          5.2709920250        10.8510695044         6.0244158350
H          7.7774828347        12.6613182671         3.0886637652
O          3.3493419540        12.0122206001         2.0750327688
H          3.6703729571        12.5609525953         1.3509417565
O          5.6190390696        12.9417356562         1.2504285036
O          2.9210110766        11.3242843977         4.6932154462
C          7.8107469975        11.4689470332         5.5122950620
C          8.3290917940        12.4000304981         6.3715091162
H          8.4616247621        10.6640697749         5.0333436580
C          7.5182895896        13.5178880457         6.8048843990
H          9.3666866173        12.3295101539         6.6992068805
O          8.2253265169        14.2192227512         7.8890118580
H          7.6245582547        14.9843325151         7.9262211007
O          6.4323332233        13.9609087206         6.3853920490
C          6.8929297462        12.7180662496         0.4038560527
H          7.7607228208        13.4407714965         0.7788470473
H          7.1920522556        11.7111486834         0.5033571144
H          6.6086288648        12.9760372929        -0.6379959612
C          2.5272208168        12.0152145804         5.8998648607
H          2.1195463409        11.3391380992         6.5814744811
H          3.3986557934        12.4369775545         6.2545546655
H          1.8439313070        12.7790484302         5.6654080380
          28
ANG Step:       1834 Time:    37909.5069221269
C          4.3420464179        12.1369641550         2.9897094697
C          4.1831623470        11.5641931885         4.2732060152
C          5.3182823074        11.2380750836         5.0280268189
C          6.6281791271        11.7597885852         4.6491344285
C          6.7510446331        12.4152238798         3.4124256473
C          5.6699047813        12.4701929919         2.5760145393
H          5.2135684488        10.9500723060         6.1050254595
H          7.7274775897        12.7924215674         3.0884940795
O          3.3491989427        12.0150249481         2.1056769029
H          3.6070498545        12.5251237159         1.2851106162
O          5.6309863991        12.9183546518         1.2663833031
O          2.9240165031        11.3435313374         4.6997679085
C          7.8179615290        11.4400972297         5.5203904037
C          8.3499215731        12.4114914220         6.3842910993
H          8.4082993972        10.7160078729         5.0620332248
C          7.5608157699        13.4978195015         6.8354060655
H          9.3635965857        12.2958404433         6.7421780038
O          8.2217686669        14.2277971777         7.8790063901
H          7.5771699833        14.9540763537         8.0162116889
O          6.3894338226        13.9492320237         6.4075715012
C          6.8594217513        12.6945563174         0.4270823708
H          7.6028793009        13.3268470229         0.6845298544
H          7.1964300087        11.6124123808         0.4485717330
H          6.5468519334        12.9725854172        -0.5605796612
C          2.5576621337        11.9995435538         5.8898716344
H          2.0907228238        11.1478422357         6.5002471351
H          3.5186693324        12.4454775944         6.3581173537
H          1.7910384290        12.8006551082         5.6189935578
          28
ANG Step:       1846 Time:    38157.5516784331
C          4.3456772253        12.1240452622         2.9661092920
C          4.2055036378        11.5806213553         4.2620476198
C          5.3228821902        11.2961616521         5.0149568766
C          6.6062340166        11.7933726003         4.6468103743
C          6.7262403342        12.4374812683         3.4366339819
C          5.6700239496        12.4797334616         2.5305919645
H          5.1542260379        10.9595159312         5.9989456026
H          7.6320100077        12.9051708162         3.1188204230
O          3.3472627200        12.0369053066         2.1430527292
H          3.5620063433        12.3867526062         1.2574616490
O          5.6752580728        12.8789629135         1.2806561158
O          2.9343841749        11.3606365632         4.6817439771
C          7.8093168772        11.4244603118         5.5154684823
C          8.3487739486        12.4256127508         6.3919790231
H          8.5341914149        10.6801011664         5.0417264140
C          7.5798264926        13.5135981926         6.8680009016
H          9.3152017198        12.2502422151         6.8861427073
O          8.1978552933        14.2352348269         7.8502401338
H          7.5828052936        14.9091495422         8.1490145853
O          6.3948998613        13.9037016141         6.4539222923
C          6.7799423167        12.6527971091         0.4605733067
H          7.6681647102        13.3782778317         0.7638066932
H          7.1066564561        11.6491892748         0.4538393208
H          6.4165229312        12.9398487241        -0.5559096583
C          2.5881375708        11.9772095297         5.9037496190
H          2.1174003845        11.2325556682         6.4610220100
H          3.3415509045        12.4011204325         6.4852266953
H          1.8679834504        12.7120625702         5.6925080351
          28
ANG Step:       1857 Time:    38384.9260383804
C          4.3800301014        12.0879478365         2.9511081903
C          4.2205246910        11.5892273569         4.2672778591
C          5.3153772223        11.3770431904         5.0069721016
C          6.6038440562        11.7916476390         4.6794892897
C          6.7061101246        12.4708375011         3.4162065578
C          5.6633355241        12.4908590748         2.5317850468
H          5.1694815041        10.8412332163         5.9734687856
H          7.6688347200        12.9455678650         3.1769348006
O          3.3209752041        12.0630512341         2.1626263328
H          3.6076295595        12.2866874155         1.2640258535
O          5.7001787399        12.8497972655         1.2771662317
O          2.9578143844        11.3745478757         4.6522081301
C          7.8065893338        11.4331712531         5.5052378522
C          8.3286390158        12.4232168331         6.3931459075
H          8.5066939880        10.7931702398         5.0681657680
C          7.5496886196        13.5411082432         6.8702607841
H          9.2096605723        12.2072240015         6.9725465280
O          8.1829608358        14.2464851122         7.8324473298
H          7.5331217687        14.8721726549         8.2123681690
O          6.4395353223        13.8416054876         6.5089186605
C          6.7394898020        12.6513528722         0.4690603373
H          7.5538894004        13.2184894087         0.7491962789
H          7.0515844258        11.5522258595         0.5206686867
H          6.3964262230        12.8796596895        -0.5115614803
C          2.5905560393        11.9486786895         5.9278021920
H          2.0417019019        11.1982517099         6.6067472534
H          3.4162806355        12.4102866511         6.5912746764
H          1.8271912501        12.8000562082         5.7357400044
          28
ANG Step:       1867 Time:    38591.6300019689
C          4.4024171530        12.0433440270         2.9442431088
C          4.2180391325        11.6054569775         4.2609242453
C          5.3175651553        11.4282958239         5.0496314739
C          6.6156434894        11.7920599378         4.6947495512
C          6.7105253036        12.5026436980         3.4047460997
C          5.6652077636        12.4959442395         2.5630896098
H          5.2300953517        10.8030042519         5.8924898737
H          7.6742505236        12.9047524029         3.1929009013
O          3.2939581374        12.0893099497         2.1715225916
H          3.6645930305        12.2405581520         1.2578418031
O          5.6720895352        12.8455091867         1.2677335649
O          2.9729574929        11.3887005446         4.6404651302
C          7.7930714558        11.4671055289         5.5072067747
C          8.2962401341        12.4231306908         6.3999361364
H          8.5364016106        10.7787682457         4.9805848567
C          7.5677194799        13.5226926798         6.8644441011
H          9.1776711964        12.1565495300         6.9907606945
O          8.1814763512        14.2696878446         7.8357394660
H          7.4792078535        14.8236034839         8.2053293735
O          6.4357589093        13.7977421358         6.5442283418
C          6.7435848377        12.6108814861         0.4477156734
H          7.7072911392        13.2592256681         0.7443074784
H          7.0065020356        11.5843886391         0.5315593251
H          6.4282485770        12.8594704888        -0.5990542261
C          2.5704416497        11.9347076359         5.9770975339
H          2.0867870613        11.2058598095         6.5477275642
H          3.4490260674        12.2930908665         6.4318918894
H          1.9158080146        12.7420210277         5.7547440978
          28
ANG Step:       1878 Time:    38819.0043619162
C          4.3856534981        11.9963211244         2.9400487021
C          4.2152581504        11.6249762612         4.2674800886
C          5.3390855108        11.4559731288         5.1113840739
C          6.6123584857        11.8175873762         4.6812969238
C          6.7406830029        12.5205539819         3.4344668089
C          5.6729123805        12.5004474593         2.5735896195
H          5.2432101040        10.8024645667         6.0056993273
H          7.7245940363        12.8869495645         3.0956398088
O          3.2885862388        12.1169164129         2.1721131922
H          3.6266389103        12.2603528437         1.2835986384
O          5.6120053859        12.8618968558         1.2485585641
O          2.9648252900        11.4035869036         4.6470586387
C          7.7904789282        11.4915497928         5.4999575041
C          8.2853361121        12.4070656870         6.4157919119
H          8.4304353921        10.8400614018         4.9983772226
C          7.6156090718        13.4888479082         6.8738561564
H          9.2027107922        12.1425292152         6.9089774441
O          8.1914497094        14.2994788574         7.8510266369
H          7.4142699881        14.7931645690         8.1600920854
O          6.3805407595        13.7667411492         6.5651570344