          28
ANG Step:       1546 Time:    31956.4327707788
C          1.7703728882        13.9970837409         9.6732417184
C          3.0761968141        13.8561442358         9.2356498952
C          3.3961354168        12.5744595424         8.7344060374
C          2.6555462388        11.4602027987         8.6951287906
C          1.2424839628        11.6535847770         9.0716975464
C          0.8812447061        12.9478351976         9.5139789441
H          4.5074772861        12.4479170061         8.6148207491
H          0.5214731611        10.8657356669         8.9420829557
O          1.3109484411        15.1488277152        10.2287155975
H          0.6020960589        14.8211036306        10.8108667174
O         -0.3173968775        13.3067719789         9.9468853323
O          4.0549407670        14.7992613077         9.1155250628
C          3.0726617125        10.0161233021         8.5652876936
C          2.6566475354         9.1223342761         9.5328982851
H          3.8697518942         9.7893447355         7.8370791250
C          1.7649104110         9.4986638204        10.6647122195
H          3.0459391642         8.0743121383         9.7379738594
O          1.4527152341         8.4122262597        11.5119978115
H          1.1461511711         9.0018823632        12.2207557508
O          1.2740210463        10.6178921682        10.9754156119
C         -1.2156178042        12.3523043022        10.6166073202
H         -2.2084991149        12.7291465177        10.3418696658
H         -0.9426078560        11.3413627263        10.3670322906
H         -1.0896221524        12.5557055507        11.7311491834
C          3.9601713915        16.2582134169         9.2654180146
H          3.7311950087        16.5386923255        10.2953917445
H          4.9308735396        16.5898005545         8.8765772264
H          3.1967099607        16.5681306134         8.5916262287
          28
ANG Step:       1566 Time:    32369.8406979557
C          1.7866355511        13.9915891213         9.7185421866
C          3.0660542892        13.8525626913         9.2026255174
C          3.4672214263        12.5046477188         8.7136938307
C          2.5833415377        11.4267435042         8.6680741999
C          1.2874565277        11.6787610059         9.0465485133
C          0.8741141332        12.9528499527         9.5039914187
H          4.5334936741        12.4045247242         8.3465061604
H          0.5590701522        10.9174143213         8.8145853582
O          1.3708241707        15.1666980069        10.2427710907
H          0.5638264833        14.9978486910        10.7519678658
O         -0.4061319547        13.3432104414         9.9702768039
O          4.0123108460        14.7728789791         9.1654315555
C          3.0932402204        10.0904428499         8.5694632485
C          2.6524382425         9.2136953957         9.5719435775
H          3.5466206426         9.7235807692         7.6364196488
C          1.7885738870         9.4974163299        10.6507303122
H          3.0547679213         8.1642379425         9.3531430138
O          1.4817509459         8.4361415166        11.5344913329
H          1.4035917637         8.7039288184        12.4749256643
O          1.2738957790        10.7034361472        10.9625770055
C         -1.2090800946        12.3796702190        10.5924592020
H         -2.2599901956        12.5548165511        10.3219747675
H         -1.0648345978        11.3636187368        10.2462438831
H         -1.0842688453        12.2930995461        11.6905650578
C          3.9842199610        16.2459507034         9.2793380011
H          3.7861369914        16.4949909183        10.3093302429
H          4.9674143190        16.6596780004         9.0340487702
H          3.2127177285        16.6899853165         8.6964609065
          28
ANG Step:       1587 Time:    32803.9190214915
C          1.7620903786        13.9926226040         9.7157267162
C          3.0885570007        13.7799386194         9.1161178469
C          3.5345108732        12.5333994320         8.6931906269
C          2.6438074466        11.5331253177         8.6554296582
C          1.1955437345        11.7323484660         9.0622142156
C          0.8110043728        13.0151235635         9.5715737467
H          4.5683642612        12.3629562100         8.2838940579
H          0.4343465776        11.1241922167         8.5925933313
O          1.4497259925        15.2181317915        10.2820890923
H          0.4941073050        15.1679607968        10.4436204881
O         -0.4410245192        13.3509246692         9.9562391404
O          4.0413743585        14.7696268204         9.1896805892
C          3.0516946883        10.0925037900         8.5735767077
C          2.6443704035         9.2665418725         9.5865525386
H          3.3649384637         9.6254317979         7.6307706354
C          1.8132538612         9.5596642267        10.7136920835
H          2.7720180204         8.1233477214         9.5317234796
O          1.5349960649         8.4868338261        11.5050305174
H          1.5672221282         8.7738255178        12.4593111286
O          1.3209166190        10.6710575562        10.9271752345
C         -1.2633776603        12.3186298084        10.5638329543
H         -2.2903699251        12.6845447963        10.4618063027
H         -0.9973631088        11.3972379975        10.0899499319
H         -0.9757416729        12.3050861955        11.6185280035
C          3.9391366779        16.1686116885         9.3483382405
H          3.7689668713        16.4582100632        10.3677409792
H          4.9563658527        16.3903057961         9.0189588887
H          3.2477644719        16.6268423744         8.6790154254
          28
ANG Step:       1606 Time:    33196.6565523096
C          1.8032916804        14.0351935012         9.6698743909
C          3.0837816812        13.8605571741         9.1365496059
C          3.5510163496        12.5865828987         8.6435117849
C          2.6096202565        11.5456249103         8.6890223780
C          1.1981715936        11.8500487392         9.0383158582
C          0.7926643885        13.0313148693         9.6195410455
H          4.6735505148        12.4761472583         8.5322004991
H          0.5043846011        11.0909740760         8.7061538411
O          1.5256066249        15.2374778305        10.2959136764
H          0.5690264613        15.3364063512        10.2109546263
O         -0.4916181469        13.3614958473         9.9341724079
O          4.0675435532        14.6871908671         9.1897602208
C          2.9649672568        10.0982753510         8.5571755013
C          2.6106054729         9.2202662661         9.6078801242
H          3.3931254259         9.7296581161         7.6166836817
C          1.9093721661         9.5762654707        10.6875506819
H          2.9144078202         8.1076815560         9.5595202524
O          1.5857959017         8.5101209729        11.5055317472
H          1.4785497683         8.9825460498        12.3774106861
O          1.3185872009        10.7130843353        10.9334693062
C         -1.2788473741        12.2898611094        10.5522000322
H         -2.3188570486        12.6344443068        10.5038529322
H         -1.2946893185        11.3061032506        10.0843603500
H         -0.9792596845        12.1220066154        11.5513140416
C          3.9179615410        16.1046435459         9.4001159597
H          3.6395369345        16.3615668580        10.3856918037
H          4.8508057313        16.6216331403         9.1434668951
H          3.1394097720        16.4479600587         8.7323038395
          28
ANG Step:       1618 Time:    33444.7013086158
C          1.7874684299        14.0735942648         9.6576610663
C          3.0670570381        13.8650750405         9.1543076166
C          3.4935291550        12.5762216836         8.6386811213
C          2.5959698352        11.5628115417         8.7101694774
C          1.2478523466        11.8788105772         8.9986485688
C          0.8413204645        13.0820211405         9.6173833836
H          4.5343159923        12.4959621403         8.6031110914
H          0.5072628848        11.0965145041         8.8602049200
O          1.5620403592        15.2444173046        10.2935146461
H          0.6322023839        15.5095704318        10.2000980533
O         -0.5303924631        13.3466034620         9.9296154775
O          4.1279284816        14.6833222607         9.1957198588
C          2.8957754174        10.0993531546         8.5531432696
C          2.6427920970         9.1792309840         9.5399525310
H          3.4365215804         9.8356048578         7.6662420330
C          1.9186558640         9.5934696729        10.6879378542
H          3.0446046572         8.2387065396         9.4736930668
O          1.6208946866         8.5386457051        11.5374384016
H          1.2525008366         8.8860225844        12.3610073640
O          1.3248377147        10.7395532055        10.9509435107
C         -1.2998011078        12.2875860193        10.5485176587
H         -2.3243410241        12.6664921150        10.5596747310
H         -1.3136918579        11.3636044838         9.9200037315
H         -0.9266982149        12.0356483454        11.5749524459
C          3.8971058375        16.0786236164         9.4140458763
H          3.5517304839        16.2170360575        10.4732655575
H          4.8171432305        16.6409146265         9.2549323731
H          3.0232493826        16.4058244479         8.7976160904
          28
ANG Step:       1628 Time:    33651.4052722043
C          1.7597846026        14.1240670010         9.6609601942
C          3.0856507165        13.8318538217         9.1501203154
C          3.4248645339        12.5821197945         8.6659424743
C          2.5884451690        11.5502161932         8.7116373475
C          1.2643054517        11.8899469026         8.9880866525
C          0.8486038841        13.1117981771         9.5929768808
H          4.5323065651        12.4087168089         8.5256950128
H          0.4964912252        11.1497339705         8.8968638099
O          1.5810734658        15.2685214245        10.2978368468
H          0.6649483979        15.5895153917        10.2312703237
O         -0.5285333915        13.3316546977         9.9257553623
O          4.1770909327        14.6959785888         9.2000171846
C          2.8524930696        10.1208434028         8.5269912054
C          2.6624407803         9.1810606647         9.4928377679
H          3.5161828762         9.8802799474         7.6865516675
C          1.8955203657         9.6088090957        10.7060775340
H          3.1538372413         8.1361244371         9.4237971985
O          1.6531881458         8.5621358792        11.5692451944
H          1.0596046573         8.8512546799        12.2925417354
O          1.3497871379        10.7367234290        10.9612122171
C         -1.3159847178        12.2820940608        10.5404910901
H         -2.3092119485        12.7315935677        10.6575974382
H         -1.2714649419        11.4660542656         9.8360607716
H         -0.8932025870        12.0006532959        11.4800808821
C          3.8623847880        16.0662393041         9.4463486246
H          3.5767834754        16.1221529491        10.4627637942
H          4.8057121621        16.5864059987         9.2630615386
H          3.0713054211        16.4271768798         8.8145141141
          28
ANG Step:       1644 Time:    33982.1316139458
C          1.7680373942        14.1632259917         9.6451782969
C          3.1228985809        13.8531165862         9.1674652000
C          3.4219008435        12.5637934110         8.7083666939
C          2.5284317060        11.5131595753         8.6931359743
C          1.2110983280        11.9034902419         9.0186186140
C          0.7977067598        13.1284144946         9.5392613016
H          4.4918493593        12.3783330522         8.5062955244
H          0.4779923290        11.1498359120         8.8988740204
O          1.5839398913        15.3524736668        10.3264268309
H          0.6512257707        15.6145418397        10.2362959998
O         -0.4737442158        13.3347471585         9.9181599616
O          4.1913118131        14.6865212502         9.1954381076
C          2.8484228874        10.1384828221         8.4400081893
C          2.6454311354         9.2231930122         9.5149194179
H          3.5480605078         9.8848355599         7.6819250880
C          1.8909423788         9.5780537615        10.6891893263
H          3.1393635394         8.1947026872         9.4207669188
O          1.7014684377         8.5873745755        11.6236783485
H          1.0320575641         8.8460019561        12.2492783197
O          1.3988444853        10.7195392329        10.9745957555
C         -1.2993047836        12.2909128377        10.5144053529
H         -2.2861345831        12.7380381471        10.6788342266
H         -1.2557105150        11.5002917232         9.8299462301
H         -0.8509043132        11.9733433432        11.5262492110
C          3.8552728485        16.0567796197         9.5028841605
H          3.5721992261        16.1071193357        10.5336826800
H          4.7858238097        16.5611515052         9.2612229276
H          3.1134789590        16.4335928175         8.8245277491
          28
ANG Step:       1659 Time:    34292.1875593286
C          1.8081186013        14.1674325528         9.6272821340
C          3.1013136414        13.8876848886         9.2036344898
C          3.4690962178        12.5059246199         8.7440292762
C          2.4813894098        11.5637741256         8.6541078702
C          1.1347551359        11.8650685530         9.0510949056
C          0.8052844124        13.1648686143         9.5031441643
H          4.5065269269        12.3907137631         8.7132277358
H          0.3956746508        11.0857156789         8.9787064839
O          1.5520844474        15.4146736212        10.3436747425
H          0.6236340625        15.6260085244        10.1761862321
O         -0.4424428761        13.3797481464         9.9286722407
O          4.1528884336        14.6729189065         9.1919841188
C          2.8590880203        10.0900066871         8.4123051588
C          2.6292858699         9.2808591059         9.5302138042
H          3.4863532175         9.8194094061         7.5862469895
C          1.9048663775         9.5462754015        10.6737827111
H          3.0329432644         8.3401341114         9.5205636443
O          1.7524677069         8.5815103138        11.6575464795
H          1.3422155056         8.9726584681        12.4279396305
O          1.4383832194        10.6996493055        10.9843838319
C         -1.2268491714        12.3175992985        10.5087389778
H         -2.2522360592        12.6814982297        10.4509060722
H         -1.2078533665        11.3848626863         9.9220928153
H         -0.8995453894        12.1082987012        11.5690913428
C          3.9137681167        16.0555151979         9.5337482639
H          3.5683217440        16.1357528133        10.5996727589
H          4.8230288681        16.6318111903         9.3738651809
H          3.0420165506        16.3826348531         8.9298967117
          28
ANG Step:       1667 Time:    34457.5507301993
C          1.8089694355        14.1894678694         9.6357270775
C          3.0895648098        13.8594710141         9.2084133927
C          3.4663121190        12.5063817591         8.7794306117
C          2.4806386208        11.5746707013         8.6215372526
C          1.1113323872        11.8414086914         9.0632847705
C          0.8314013982        13.1773850223         9.4913884980
H          4.5678298089        12.2832054989         8.7247805479
H          0.3441487864        11.1084399537         8.9400686297
O          1.5271356954        15.4223186042        10.3375994532
H          0.5790277759        15.6096450274        10.1749362575
O         -0.4360019203        13.4188822058         9.9410633137
O          4.1342328183        14.6798694637         9.1955086465
C          2.8500969948        10.0849173247         8.4163862459
C          2.6301223528         9.2981448040         9.5205136453
H          3.4460066410         9.7839346377         7.5704615382
C          1.9040179766         9.5535045222        10.6919900092
H          3.0221083798         8.1952315326         9.5545064601
O          1.7853058153         8.5667268141        11.6673590165
H          1.5295479846         9.1450786551        12.4406021522
O          1.4524292478        10.6912982264        10.9916272072
C         -1.1903854350        12.3315488831        10.4954578583
H         -2.2263391407        12.6683408710        10.3633972458
H         -1.1867649935        11.3608037462        10.0489409442
H         -0.8937911101        12.1715443465        11.5666462995
C          3.9409332475        16.0592655073         9.5529855798
H          3.6704070226        16.1772184831        10.5733081335
H          4.8510532874        16.6422278696         9.4104439221
H          3.1186795928        16.4318698793         8.9864916201
          28
ANG Step:       1678 Time:    34684.9250901467
C          1.7801058727        14.2220041652         9.6614860787
C          3.0973947727        13.8126727394         9.2083176391
C          3.4470532393        12.5196298226         8.8301940324
C          2.4857815609        11.5466925727         8.5869760092
C          1.1271711606        11.8389355508         9.0622613783
C          0.8535792881        13.1789915433         9.4961440442
H          4.4351533641        12.1995964513         8.6807346295
H          0.3047381367        11.1616015665         8.8409806391
O          1.4894928723        15.4059256957        10.3088724078
H          0.5330238035        15.5465326821        10.2169691001
O         -0.4189427053        13.4746968517         9.9520667764
O          4.1167964882        14.6977863506         9.2055018335
C          2.8261634332        10.1160960908         8.4218592801
C          2.6394836743         9.2529188013         9.5203561765
H          3.3998764127         9.7509896621         7.5759291717
C          1.9202225584         9.5610710487        10.7059443112
H          2.9364446222         8.2841337488         9.4795719201
O          1.8315693550         8.5617146980        11.6821247677
H          1.7791389928         9.1881998296        12.4006592003
O          1.4546766477        10.6994216286        11.0125504589
C         -1.1622812903        12.3600400100        10.4905528699
H         -2.1938511551        12.6645889254        10.3667147253
H         -1.0086153853        11.3307700342        10.0766599589
H         -0.9192786685        12.3065939970        11.5494364349
C          3.9811930334        16.0719710640         9.5791367063
H          3.7864117486        16.1808600256        10.6834493427
H          4.9434631282        16.5461030276         9.3480058742
H          3.2016321117        16.6032207724         8.9725741625
          28
ANG Step:       1688 Time:    34891.6290537351
C          1.7596423432        14.2077316563         9.6733720474
C          3.1009071720        13.8267073143         9.2279491106
C          3.4054090730        12.5035332495         8.8562232911
C          2.4776656377        11.5208459806         8.5905640038
C          1.1764469568        11.8649554524         9.0362946726
C          0.8524458125        13.1785232022         9.5243722490
H          4.4687479321        12.2360166489         8.6136020436
H          0.3569175929        11.2326704839         8.7528875819
O          1.4559384409        15.3814442906        10.2703097247
H          0.4820776792        15.4505486591        10.2931285898
O         -0.3965429367        13.5150478444         9.9520355315
O          4.1062340242        14.7092707570         9.2144057535
C          2.8051052521        10.1345193250         8.4324890597
C          2.6311050795         9.2240226844         9.5222377375
H          3.3483407397         9.7687409654         7.5724957244
C          1.9535257048         9.5596064577        10.6995213621
H          2.9780423483         8.1193561731         9.3372523458
O          1.8762869254         8.5731613078        11.6881866918
H          1.9298271202         9.0877915380        12.5511302918
O          1.4478608012        10.7157119195        11.0358267077
C         -1.1512637083        12.3942480520        10.4970406619
H         -2.2203893180        12.6285001779        10.3846013978
H         -0.8115643302        11.4838522743        10.0689433331
H         -0.9341394415        12.3860309369        11.6081413956
C          4.0194034331        16.0966494099         9.6049307822
H          3.8704452088        16.1595891300        10.6554046477
H          5.0270844408        16.3926738084         9.2909395802
H          3.3171702820        16.6753448994         9.0443044232
          28
ANG Step:       1700 Time:    35139.6738100413
C          1.7750413892        14.1478520404         9.6706266799
C          3.0733863576        13.8847598487         9.2719404115
C          3.3915058218        12.4784661847         8.8524361081
C          2.4680342768        11.5268871558         8.6413844727
C          1.2133303184        11.9215995955         8.9906201112
C          0.8464445201        13.1712229061         9.5649933475
H          4.4091188944        12.4101330107         8.6234289589
H          0.4290588946        11.2531566272         8.6848302653
O          1.4153010148        15.3599719289        10.2183354711
H          0.4541502103        15.2823641690        10.4222779010
O         -0.3838164876        13.5482435295         9.9481525133
O          4.0955836564        14.7121317798         9.2215185292
C          2.7874062441        10.0975231297         8.4522043282
C          2.6206280682         9.1887860009         9.4900923085
H          3.2808390185         9.8279179730         7.5351315076
C          1.9871899903         9.5751404552        10.7208649087
H          2.9317809266         8.2416159688         9.3241969357
O          1.9363505496         8.5942682823        11.6939962883
H          2.0080368417         8.8896321366        12.5984933953
O          1.4481957308        10.7155461372        11.0491770176
C         -1.1401933333        12.4634367780        10.5314045043
H         -2.2002431564        12.5430485174        10.3020448913
H         -0.7268068227        11.5573359035        10.0923257180
H         -0.9550528533        12.4081148151        11.6122869198
C          4.0925315902        16.1120351132         9.6203409976
H          3.9368845551        16.1934409961        10.7348157252
H          5.1132073960        16.3694700437         9.3479964844
H          3.3123922738        16.7217477487         9.0994317939
          28
ANG Step:       1707 Time:    35284.3665845533
C          1.7898353649        14.1321405739         9.6781426405
C          3.0578603214        13.8955857947         9.2895186581
C          3.3992531127        12.5016332111         8.8461322334
C          2.4835464782        11.5293275714         8.6826368880
C          1.1924388323        11.9573444119         8.9670833406
C          0.8475078600        13.1557578997         9.5790309938
H          4.4719546652        12.4478563654         8.6279216065
H          0.4488678548        11.2533362847         8.6759721425
O          1.3922226318        15.3484430416        10.1861659838
H          0.4778736536        15.1812433516        10.4947316585
O         -0.3881221733        13.5628284506         9.9478447034
O          4.0918595711        14.7154293703         9.2256880515
C          2.7789889605        10.0689339096         8.4532317329
C          2.6008776354         9.1956346438         9.4778425452
H          3.2412418000         9.8469362025         7.5166896304
C          2.0023872592         9.5945489486        10.7457914634
H          2.9606669747         8.1094287860         9.3565610202
O          1.9745082945         8.5944368739        11.6892132450
H          2.0214963438         8.9012818217        12.6331711633
O          1.4546558853        10.7040092567        11.0484749109
C         -1.1315879352        12.4981712533        10.5454868281
H         -2.1827083903        12.5421547785        10.2307820752
H         -0.7769429700        11.5674447506        10.1800854661
H         -0.9565965910        12.4346540543        11.6914576235
C          4.1340180083        16.1152781995         9.6334107827
H          3.9831627021        16.2110014439        10.7039751365
H          5.1573957240        16.4536150407         9.4010400776
H          3.3559089694        16.6808749385         9.1439159643
          28
ANG Step:       1729 Time:    35739.1153044479
C          1.7770465625        14.1578117225         9.7428841183
C          3.1294970415        13.8580080449         9.2798112939
C          3.4820503059        12.6118789483         8.8267816806
C          2.5603776359        11.5554455918         8.7912869638
C          1.0934187106        11.9669552625         8.8985542746
C          0.8404410849        13.1474450091         9.5822407041
H          4.5470346020        12.3513685336         8.6813406906
H          0.2658707911        11.3054595612         8.6734220837
O          1.3304277034        15.3319062291        10.1057864727
H          0.5242020820        15.1412978746        10.6156445177
O         -0.4106805153        13.5742936147         9.9516702640
O          4.1260516749        14.7488346613         9.2427204554
C          2.7484425691        10.0805771997         8.4188669416
C          2.5303108748         9.1956962503         9.5344909193
H          3.1384582656         9.7270349166         7.4721559903
C          2.0652888781         9.5970368946        10.7575592002
H          2.8864186007         8.0843994539         9.5386324363
O          2.1068671018         8.5648269729        11.6975761286
H          1.8771212849         9.1139203533        12.4690398615
O          1.4768324639        10.6853481833        11.0525114431
C         -1.1619773822        12.5550469670        10.6115792964
H         -2.1995109780        12.7714803658        10.3114693661
H         -0.8093131987        11.5595854711        10.4480518370
H         -1.1525633637        12.7979403744        11.7526396630
C          4.2191358367        16.1021251206         9.6865085452
H          4.0621879952        16.1473873205        10.7540875258
H          5.2132087702        16.4723829124         9.3681695581
H          3.4783277216        16.6915627846         9.1661638190
          28
ANG Step:       1752 Time:    36214.5344207014
C          1.8220619820        14.1232679961         9.7202023277
C          3.1817791476        13.9281766763         9.2918617225
C          3.5218585722        12.5294361225         8.8514102786
C          2.5001970198        11.6038704275         8.7157142602
C          1.1527510618        11.9645973116         8.9203049147
C          0.8046857836        13.1417405094         9.5200011783
H          4.6157697576        12.3587002555         8.6606871056
H          0.4274583289        11.2429267522         8.5202211748
O          1.3221746922        15.4027147825        10.0892845466
H          0.3899383296        15.2598625064        10.3630193584
O         -0.4325273280        13.5419259563         9.9479926788
O          4.2139833855        14.7563766205         9.2453796804
C          2.7187883060        10.1475100609         8.5112740524
C          2.5634265515         9.2243117257         9.4796307425
H          2.8998052602         9.8608740147         7.4710525475
C          2.0588401530         9.5617918670        10.7745525839
H          2.8375753013         8.1001356327         9.2501612984
O          2.2309649813         8.5943352062        11.7516138552
H          1.6290958962         8.7742574503        12.4644357488
O          1.5195580561        10.6618882454        11.0904552449
C         -1.2871690676        12.6550371447        10.7417855753
H         -2.3026478062        12.6051069209        10.3113781710
H         -0.8767209393        11.6382111193        10.7164779927
H         -1.2084239014        12.9803754226        11.8337257425
C          4.2342884869        16.0971592969         9.7381239406
H          4.1684999568        16.1275758246        10.8052046250
H          5.2746934827        16.3716941589         9.4985978757
H          3.5098177246        16.7597166075         9.3065069175
          28
ANG Step:       1763 Time:    36441.9087806487
C          1.8038433282        14.1779159564         9.7040328072
C          3.1951025882        13.8913029606         9.2780312887
C          3.5026286444        12.5361453413         8.8846457825
C          2.5044094187        11.6071320708         8.6633499317
C          1.1698052771        11.9809087556         8.9475394599
C          0.8037866756        13.1411704265         9.4988227138
H          4.4954271561        12.2614998447         8.6720745881
H          0.5162279516        11.2343771951         8.5735326604
O          1.3611084010        15.4098955620        10.0807627396
H          0.3899450424        15.2037248820        10.1382854415
O         -0.4594024359        13.5258934937         9.9414220989
O          4.2403196051        14.7467265614         9.2459224978
C          2.7259131850        10.2139229819         8.5052638433
C          2.5810892129         9.2049388352         9.4866192333
H          2.8290050124         9.9339474010         7.4717140398
C          2.0517297472         9.5391205847        10.7822984685
H          2.7918382146         8.2748928450         9.1531478757
O          2.2861920490         8.6060838493        11.7808343081
H          1.5399009412         8.6463738103        12.4285006559
O          1.5377904182        10.6490568500        11.1141513360