          28
ANG Step:         24 Time:      496.0895126123
C          1.4736324405        13.2543170222         9.0723489977
C          2.8430748369        13.0984079203         8.7695359764
C          3.3886586859        11.7841724908         9.0042673004
C          2.6893533294        10.7396051408         9.6052975717
C          1.2626315850        10.9569106127         9.8322389910
C          0.6842467370        12.1821617744         9.5746653683
H          4.4215968390        11.6553258251         8.6964014571
H          0.6093139332        10.1755937529        10.2237079736
O          0.8279329166        14.5045084676         8.7716490997
H         -0.1415800628        14.3766301356         8.8846268663
O         -0.6042083360        12.4952352314         9.8228049218
O          3.6978126261        14.0299932983         8.3678931820
C          3.3296486854         9.4582338656         9.8047748607
C          2.9337731958         8.1705333556        10.3921640303
H          4.3535369239         9.4815358149         9.4559513339
C          1.7802623644         7.8753430332        11.0593745970
H          3.5941113123         7.3385627046        10.1259462250
O          1.5594840863         6.3672083089        11.3038043341
H          0.6426373098         6.3674322553        11.6893059325
O          0.8283955832         8.5873041646        11.5884395525
C         -1.3844923827        11.5906723416        10.6126837949
H         -1.7295399598        10.7250529134        10.0028783317
H         -0.8857581464        11.1271460717        11.4883149269
H         -2.2269670802        12.2328659336        10.8340808640
C          3.5919089366        15.4151449989         8.7209820591
H          3.3091260555        15.4897380210         9.7522158685
H          4.6142999506        15.6631869240         8.5236019803
H          2.8241504955        15.9916496163         8.1523773513
          28
ANG Step:         25 Time:      516.7599089712
C          1.4732273043        13.2557821070         9.0725350501
C          2.8440157326        13.0976527028         8.7688371865
C          3.3898158553        11.7837575943         9.0053651295
C          2.6899600800        10.7410503152         9.6047884162
C          1.2604385770        10.9518276191         9.8308135130
C          0.6821611889        12.1803506375         9.5774169002
H          4.4199228492        11.6520289784         8.6939483169
H          0.6099529153        10.1752315902        10.2334521874
O          0.8268346876        14.5080597463         8.7690729902
H         -0.1412882473        14.3867620551         8.8817411696
O         -0.6054141517        12.4958683573         9.8219240240
O          3.6971035990        14.0290655130         8.3680581679
C          3.3319838127         9.4584563814         9.8067590278
C          2.9380968110         8.1746656799        10.3891248743
H          4.3513365371         9.4832148349         9.4513539611
C          1.7749236674         7.8786967113        11.0616762783
H          3.5852443476         7.3291596120        10.1186869858
O          1.5621916367         6.3616053236        11.3015404762
H          0.6486466343         6.3534181738        11.6922473713
O          0.8279596276         8.5951686077        11.5860335269
C         -1.3843908552        11.5895493606        10.6115985514
H         -1.7282615608        10.7260920855         9.9913377825
H         -0.8953726762        11.1311691485        11.4984778323
H         -2.2247012322        12.2338398247        10.8339090407
C          3.5922746593        15.4143966801         8.7227899699
H          3.3083953951        15.4942367477         9.7476894567
H          4.6103963055        15.6598801738         8.5240811641
H          2.8261918195        15.9958654115         8.1517294023
          28
ANG Step:        130 Time:     2687.1515266502
C          1.4275652170        13.2791709317         9.0608331069
C          2.8452616344        13.0473464750         8.8378440645
C          3.3679070786        11.7958754646         9.0855056522
C          2.6852177449        10.7419615690         9.6169021681
C          1.2199990558        10.9292954345         9.7810270567
C          0.6592522976        12.1780565748         9.5523039988
H          4.4177066429        11.6670628067         8.8621526406
H          0.6560205328        10.1218813815        10.2516735618
O          0.8248070056        14.5382498915         8.7184323099
H         -0.0961661276        14.5255547461         9.0768932399
O         -0.6336200758        12.5318776141         9.8122981086
O          3.7096923247        13.9400783465         8.4481390243
C          3.4671699764         9.5570195617         9.6988727523
C          3.0160846814         8.3889085843        10.2053652517
H          4.5273589870         9.6490193194         9.4899972996
C          1.6979003719         7.9996137889        10.9670621501
H          3.6145877086         7.5215595516        10.1167279414
O          1.5644608094         6.6334145255        11.2400273145
H          0.6529169801         6.5939595550        11.6276572897
O          0.8220948332         8.7356725701        11.3825714556
C         -1.4265732459        11.4879576558        10.4330517608
H         -1.4968016771        10.6338016846         9.7482921761
H         -1.1138484883        11.3472620196        11.4631890076
H         -2.4104867442        11.9251467853        10.5338538184
C          3.4401150040        15.3666625337         8.7125116989
H          3.0709565588        15.4700623675         9.7258595169
H          4.4067070385        15.8476034811         8.6529339234
H          2.7795405918        15.8579774965         7.9429420390
          28
ANG Step:        144 Time:     2976.5370756741
C          1.4102933228        13.2663887287         9.0596115860
C          2.8214891566        13.0979243381         8.8352562977
C          3.3465984031        11.8167331394         9.0737430374
C          2.6820000896        10.7335530033         9.5852840054
C          1.2586934370        10.9318587989         9.8053490635
C          0.6682238029        12.1878172339         9.5360621357
H          4.4201692349        11.7104299232         8.9336119182
H          0.6916607187        10.1051098100        10.2197099441
O          0.8351103541        14.4951837065         8.7475548893
H         -0.0748911705        14.4547895103         9.0624435306
O         -0.6543504551        12.5349765628         9.8030869129
O          3.7542662408        13.9969439178         8.4471090859
C          3.4791979321         9.5683365937         9.6986081731
C          2.8951589731         8.3780340555        10.2515511364
H          4.5397415711         9.5283791911         9.4118386788
C          1.7802781197         8.0068228380        10.9513892768
H          3.6387220193         7.5168094374        10.1871689469
O          1.5399060309         6.6046015740        11.2500688698
H          0.6497057643         6.5292894531        11.5874496191
O          0.8374689733         8.7849546183        11.3257200912
C         -1.4244217028        11.4903213436        10.4174649478
H         -1.5096078875        10.6392852549         9.7334654436
H         -1.1184832344        11.2582201968        11.4683958790
H         -2.4302069936        11.9358789685        10.4497217271
C          3.4147610300        15.3950946673         8.6872603610
H          3.1075951659        15.4854596843         9.7216533312
H          4.4068228186        15.8314255194         8.6696096765
H          2.8212938308        15.8394557159         7.9455231919
          28
ANG Step:        166 Time:     3431.2857955687
C          1.4190029110        13.3049026903         9.0295774647
C          2.7818028541        13.1429758681         8.8280218973
C          3.3865667213        11.8557053832         9.0394652450
C          2.6618999032        10.7785646539         9.5178410151
C          1.3130232074        10.9768518233         9.8100951189
C          0.6832115571        12.2315982410         9.5499460139
H          4.3906880405        11.7198202282         8.6497240944
H          0.7631310710        10.1510274456        10.2336669689
O          0.8448987507        14.4548373954         8.7837927836
H         -0.0412654998        14.5284473443         9.1932690281
O         -0.6190681019        12.5015364303         9.7788970302
O          3.7213946857        14.0670736037         8.4544531931
C          3.3788592087         9.4704800445         9.7964562569
C          2.9600849345         8.2718290563        10.2532137085
H          4.4491115984         9.6740291771         9.7700888882
C          1.7115744080         7.9874260546        10.9826693190
H          3.5603134545         7.3300199195        10.0306508934
O          1.5649949753         6.6445837759        11.2252743061
H          0.7253163626         6.7257140138        11.7419176267
O          0.8525924154         8.8173096510        11.2818634328
C         -1.4972031769        11.5552040902        10.4067662228
H         -1.4943235129        10.5699830386         9.9089021014
H         -1.0205382317        11.3253422754        11.3975593883
H         -2.4884055546        12.0005087449        10.5112852487
C          3.4988144709        15.4426519480         8.6848150881
H          2.9896898703        15.5684760511         9.6357784726
H          4.4200043840        15.9927750301         8.5949239500
H          2.7493526598        15.7964234324         8.0198751078
          28
ANG Step:        267 Time:     5518.9958278124
C          1.4333938648        13.4514884504         9.0898902948
C          2.8330279218        13.2959850511         8.8429481563
C          3.4423376346        12.0006514855         9.0091363585
C          2.7261338383        10.8617629855         9.4923393893
C          1.3533310656        11.0112188865         9.6811489647
C          0.7552223370        12.3154227256         9.4507189517
H          4.5189306941        11.9986490261         8.8149411750
H          0.8698350877        10.0848447534         9.9141278073
O          0.8741425129        14.6328090778         8.9405732931
H         -0.0780333509        14.5352011929         8.9302259686
O         -0.5646758059        12.5778191279         9.6377509457
O          3.7418922822        14.1476651554         8.4559714559
C          3.3464625398         9.5561135919         9.7336812924
C          2.8945993569         8.2532302447        10.2912963013
H          4.4037886152         9.5087829072         9.4444698249
C          1.7177583824         7.9809252076        11.0165548103
H          3.6044384925         7.3773736243        10.1921492524
O          1.5224753903         6.6545159828        11.2480714649
H          0.6059232956         6.6927229860        11.5183155129
O          0.6534791896         8.7247302216        11.3700797514
C         -1.3490791485        11.6740735245        10.4176477744
H         -1.5305090144        10.7125368113         9.9682960460
H         -0.7860985497        11.3669324296        11.2664018772
H         -2.3118541667        12.1757693228        10.5407397800
C          3.4030010284        15.5207258406         8.5913234062
H          3.1349201542        15.6748705906         9.6838609210
H          4.3645080184        16.0595958527         8.3829100598
H          2.5933619063        15.8968360436         7.9848435053
          28
ANG Step:        289 Time:     5973.7445477070
C          1.5232582343        13.4389363200         9.0549787238
C          2.8822387299        13.2205224041         8.8732973605
C          3.4878040665        11.9068774267         9.0763265996
C          2.7181429868        10.8610679165         9.4804360630
C          1.3092388245        11.1057517183         9.6299307761
C          0.7473685926        12.3188158106         9.4660115269
H          4.5716900454        11.8261547692         9.0804302079
H          0.6589160822        10.3757164571        10.0421355338
O          0.8560246188        14.6963594902         8.9830487152
H         -0.0823780199        14.4549640188         9.0445984934
O         -0.5565598595        12.5687982573         9.6137369733
O          3.7400200254        14.1959375975         8.4337835872
C          3.2671062578         9.5083208962         9.7205772554
C          2.8205695569         8.4041117535        10.2851378523
H          4.3057936568         9.4799103764         9.3860581782
C          1.6324613400         8.0502365948        11.0096740647
H          3.6365441064         7.6374943106        10.4352692704
O          1.5688858499         6.6964584153        11.2202236848
H          0.6773314718         6.5632336806        11.5590476064
O          0.7050318339         8.6974937691        11.3474226929
C         -1.3115715041        11.6362558572        10.4176126691
H         -1.4960607384        10.7748767984         9.8116337172
H         -0.8014814233        11.4920302968        11.3392319671
H         -2.2134737942        12.1287980066        10.7736571877
C          3.4086816571        15.5674476354         8.5763066794
H          3.0361466389        15.7738329031         9.6316404497
H          4.2637172282        16.2311823138         8.3026033788
H          2.5904541889        15.6975218781         7.8931788955
          28
ANG Step:        369 Time:     7627.3762564149
C          1.5044928423        13.5039857211         9.1276540893
C          2.8762039453        13.3047645491         8.9412630747
C          3.4544387100        12.0598030380         9.0610564225
C          2.6791127712        10.8982525075         9.4912048204
C          1.3436856791        11.0099042637         9.5343865379
C          0.7178571451        12.3430824856         9.4459947596
H          4.5340564057        12.0655983867         8.9232664246
H          0.7910730905        10.1372458694         9.8338077418
O          0.9835985037        14.7160688723         9.0232978242
H          0.0540251065        14.8382560960         9.3242076226
O         -0.5952057445        12.6378247129         9.6945207761
O          3.8096048257        14.2479854005         8.5996392670
C          3.3308541094         9.5532806424         9.6431657485
C          2.8068289056         8.4602637913        10.2203215360
H          4.3699773177         9.4707688132         9.2267071570
C          1.5857515666         8.1190338511        11.0150101889
H          3.4635181048         7.6084269991        10.2698640701
O          1.5777748440         6.8238113285        11.2214745540
H          0.8100548590         6.7477486726        11.8463338591
O          0.6015158821         8.7741032310        11.2555955342
C         -1.2826748399        11.6524235842        10.4205015210
H         -1.4938165196        10.8094324287         9.7440421840
H         -0.7427436200        11.3620178784        11.3436726012
H         -2.2580432203        12.1341740103        10.7444784563
C          3.4071741901        15.6039026130         8.3832827631
H          3.1191013367        16.0237178212         9.3640006956
H          4.4137957794        16.0235789194         8.1382074417
H          2.7420216926        15.7453114560         7.5407889439
          28
ANG Step:        402 Time:     8309.4993362568
C          1.5703956185        13.4750998174         9.1241903870
C          2.9066107024        13.2941102271         8.9430333155
C          3.4950636917        12.0173765281         9.0877514481
C          2.6431754796        10.8890712317         9.3949071871
C          1.2790583465        11.0634935395         9.5236636713
C          0.7512092776        12.3617413837         9.4556680220
H          4.5427836016        11.8065076683         8.9321336097
H          0.5810452346        10.2981904083         9.8427737933
O          0.9251553252        14.7731176959         9.0729379800
H         -0.0210297858        14.5010161774         9.1117965064
O         -0.5079905373        12.6180198676         9.7565528517
O          3.7978740356        14.3122957325         8.6748589032
C          3.3368195439         9.6873990134         9.6389699774
C          2.8495597369         8.4811853487        10.1636147716
H          4.3268058908         9.5936343439         9.2758578201
C          1.6297439682         8.1766659519        10.8926339863
H          3.4086535245         7.5595684870         9.9836724805
O          1.5175616697         6.7690006341        11.3580088388
H          0.5338404142         6.6481718434        11.5165453022
O          0.6078602926         8.8514230238        11.2025588572
C         -1.3708716991        11.6388464415        10.4646865675
H         -1.5865114128        10.7669287218         9.8492096344
H         -0.8332127044        11.2814910034        11.3363285165
H         -2.2647272035        12.1581147561        10.6829950335
C          3.4954134913        15.6639286573         8.3219265106
H          3.0410488049        16.2166408722         9.1280510420
H          4.3909364459        16.1450554675         7.9897779700
H          2.7420425184        15.6461427532         7.5086272876
          28
ANG Step:        413 Time:     8536.8736962042
C          1.5360581740        13.4998571417         9.1276809810
C          2.9398800324        13.3141080124         8.9339212542
C          3.4802943523        12.0303153015         9.0856111120
C          2.6303635810        10.8762989029         9.3659277369
C          1.2837161476        11.0998700385         9.5411290188
C          0.7861024377        12.3665339711         9.4513804393
H          4.5690839381        11.9630693156         8.9774209597
H          0.6110835108        10.2925175009         9.7704658291
O          0.9217808121        14.7331383933         9.0920762076
H         -0.0330047047        14.5945317511         9.0946953912
O         -0.5355677835        12.6165560195         9.7886033295
O          3.8237893234        14.3561003454         8.6929482301
C          3.3159517642         9.6742174614         9.6447461736
C          2.8422132949         8.4720374076        10.1591796213
H          4.3761596879         9.6599605102         9.2809458530
C          1.6422721434         8.1468889107        10.8360990019
H          3.4238517490         7.5574152658        10.0943236453
O          1.4981625234         6.8081819555        11.3869236421
H          0.5962782208         6.5279084822        11.4599687726
O          0.6313904969         8.8717121952        11.1860452890
C         -1.3541944787        11.6413370833        10.4603035102
H         -1.6374261700        10.8353478528         9.7573237904
H         -0.9455495268        11.3252387796        11.4453326157
H         -2.2895829726        12.2349387625        10.7077345365
C          3.4893333754        15.6550059003         8.2998495256
H          3.1087879806        16.2125895254         9.1922643914
H          4.4721902040        16.0974516278         7.9772278820
H          2.8271368597        15.6140728782         7.4465722009
          28
ANG Step:        422 Time:     8722.9072634338
C          1.5060077307        13.5280380328         9.1305109978
C          2.9612087242        13.3540165496         8.9243541613
C          3.4549811093        12.0415387827         9.0795695264
C          2.6535220241        10.8924817314         9.3469133257
C          1.2866805170        11.1173478194         9.5505678620
C          0.7881929606        12.3817854238         9.4565949317
H          4.5373040096        12.0635783121         9.0432261299
H          0.6645425233        10.2510660012         9.7736393587
O          0.9264397578        14.6997565414         9.1054326408
H         -0.0505305751        14.6523721982         9.1084359411
O         -0.5541323699        12.6214138341         9.8115886813
O          3.8498949432        14.3616086102         8.7144738888
C          3.3140784361         9.6397723522         9.6394935665
C          2.8186724613         8.4415814551        10.1681499589
H          4.3238554171         9.6971639098         9.3367528032
C          1.6219346255         8.1129242649        10.8160769256
H          3.5260428682         7.5999947366        10.1669851564
O          1.5063756562         6.8547733794        11.3957505331
H          0.5592432313         6.5396850670        11.3975715490
O          0.6615423407         8.8824440211        11.1629246723
C         -1.3531011761        11.6596691634        10.4577223459
H         -1.6280886096        10.8730471310         9.7599333999
H         -0.9936020388        11.3116576813        11.4155438594
H         -2.2202899091        12.2225911101        10.6792102506
C          3.4901657236        15.6560066887         8.2837586895
H          3.1252945392        16.2172813680         9.1297256759
H          4.4440852963        16.0367148458         7.9989009395
H          2.8237299575        15.6659008868         7.3995941867
          28
ANG Step:        445 Time:     9198.3263796873
C          1.5519521139        13.5075784819         9.1325306454
C          2.8770683320        13.3956834793         8.9339612786
C          3.4395802624        12.1187743768         9.0533710880
C          2.7165269702        10.9241144593         9.3545167249
C          1.3320605055        11.1372051172         9.5472018376
C          0.7147459825        12.3817129049         9.5052879881
H          4.5032555718        11.9522022823         9.1075229117
H          0.7333684620        10.3460069491        10.0241298702
O          0.9050637741        14.7539855533         9.1252141191
H         -0.0196454909        14.4935563914         9.2689154647
O         -0.5483323809        12.6944254600         9.8317200397
O          3.8936529103        14.3413492493         8.7630983873
C          3.2927368797         9.5944633549         9.5992688560
C          2.8044194925         8.3660070300        10.1715561316
H          4.3359922094         9.4596912414         9.4916980809
C          1.6472500300         8.0819614357        10.7871469108
H          3.5421564883         7.5694422775        10.2870709885
O          1.5194994465         6.9176970201        11.4145062740
H          0.5779362542         6.7156069687        11.3942321033
O          0.6774897107         8.9143973161        11.0942734621
C         -1.3830617512        11.6924066025        10.4463875195
H         -1.5470381199        10.8423010041         9.7962541614
H         -0.8206081494        11.2840225932        11.2662421123
H         -2.3029713860        12.1316203283        10.7087766511
C          3.5177074535        15.6714960073         8.2497230032
H          3.0034493570        16.2620698809         8.9801067743
H          4.3974203013        16.1765829739         7.9232439139
H          2.7902873009        15.5563807293         7.4164623567
          28
ANG Step:        467 Time:     9653.0750995819
C          1.4537548464        13.5818575589         9.1586751743
C          2.9165110860        13.3919802096         8.9616236691
C          3.4985889856        12.0299610431         9.0660850770
C          2.7273660126        10.9337716119         9.3846859851
C          1.3378709663        11.1318774548         9.6063294996
C          0.7717724841        12.4404902062         9.5002321018
H          4.5560802109        12.1504495448         8.8715536183
H          0.8670230415        10.2637642517        10.0881741400
O          0.8829066865        14.8046654041         9.1355120698
H         -0.0181465996        14.7223378245         9.4857905944
O         -0.5546835401        12.7703584267         9.8305657156
O          3.8455662893        14.3523171754         8.7844544310
C          3.3388757932         9.5648696874         9.5623292122
C          2.8812436089         8.3876644057        10.1091274334
H          4.3529007632         9.6552455523         9.2530013107
C          1.5965165524         8.1940535347        10.8572410266
H          3.5212644964         7.5115698770        10.0467976163
O          1.5193936998         6.8621319712        11.4354330054
H          0.6273073606         6.8569490241        11.7876862373
O          0.6538605965         8.9265686148        10.9957753080
C         -1.3645477977        11.6878542710        10.4356694641
H         -1.5328936570        10.9507804059         9.6747604587
H         -0.8970292590        11.3094888223        11.3260258803
H         -2.2641275656        12.1514547334        10.7417184432
C          3.5113564673        15.6368916399         8.2335259438
H          2.9884166354        16.1867000333         8.9777446543
H          4.4354455676        16.0858886002         7.9423266838
H          2.8980254822        15.4217225120         7.3386087886
          28
ANG Step:        488 Time:    10087.1534231177
C          1.5245653802        13.6420348408         9.1567461713
C          2.8725958620        13.3688560031         9.0184982597
C          3.5141760914        12.0261401455         9.0794377585
C          2.7467750912        10.8934665293         9.4369119154
C          1.3594379045        11.2100580778         9.6695069827
C          0.7552780983        12.5073201815         9.5299030580
H          4.5352239310        11.7915047844         8.7819661665
H          0.6262070095        10.4068969251         9.7211153412
O          0.8714649905        14.8780114499         9.1367470461
H          0.0661671819        14.8301218005         9.6798746765
O         -0.5299310974        12.7628040197         9.8402272194
O          3.7748031811        14.3156789869         8.7974282240
C          3.4324736457         9.6057252528         9.4961323418
C          2.8498394319         8.4256249306        10.1096857534
H          4.3350167178         9.4538436939         8.9405125166
C          1.6693613904         8.1566487464        10.8928701332
H          3.4968489880         7.5632487653         9.9707072179
O          1.5284515403         6.8763356396        11.4166619174
H          0.8699182255         6.9927697045        12.1235906916
O          0.5751942868         8.9504866847        10.9387457115
C         -1.3206916920        11.7372071927        10.4050298394
H         -1.5322982534        10.9449595057         9.7026129050
H         -0.8605437323        11.2242022720        11.2242621644
H         -2.2349920667        12.2152866833        10.6157470488
C          3.4800141739        15.5847015358         8.2172347701
H          2.9458990809        16.2389518276         8.8659826624
H          4.4584788099        15.9821083945         8.0772029293
H          2.9019895090        15.5862969299         7.2746063355
          28
ANG Step:        587 Time:    12133.5226626437
C          1.6102658621        13.7009459264         9.3526275981
C          3.0084669652        13.4561696783         9.1151220315
C          3.5175647266        12.0793226782         9.2478340221
C          2.6622293189        10.9906519676         9.3313414476
C          1.2743944204        11.2822886551         9.5979382883
C          0.7737351103        12.6450598066         9.5867953513
H          4.5869683390        11.8686583003         9.2008160995
H          0.5450359052        10.5064531406         9.8242556416
O          1.0700917405        14.8995690623         9.2806576581
H          0.0973097706        14.8604404330         9.1989835395
O         -0.5624608670        12.8556121533         9.9326463266
O          3.8967484344        14.3653232695         8.6328825575
C          3.2767443930         9.7248810552         9.4341966568
C          2.7797276821         8.6184298412        10.0104069998
H          4.3158462245         9.7179090837         9.1413609271
C          1.5976457799         8.2183722057        10.8759203065
H          3.4396071017         7.7663923886        10.0955497713
O          1.7040188747         6.9831380890        11.4714760835
H          0.7639758134         6.7513116603        11.3086003213
O          0.5334621831         8.8633777368        10.9246023907
C         -1.3871388972        11.6762821843        10.3611180059
H         -1.6364702378        11.0868698004         9.4216592488
H         -0.9157472387        11.1004440331        11.2156259223
H         -2.3075453822        12.1759845686        10.7038888646
C          3.4821943411        15.7019896538         8.1223073348
H          3.0862283185        16.3557414406         8.9360666435
H          4.4325288610        16.1254954041         7.7890983931
H          2.8249913510        15.6173434619         7.2324671778
          28
ANG Step:        699 Time:    14448.6070548346
C          1.6259798193        13.8631829263         9.3551601585
C          2.9424851944        13.5660736959         9.0846100576
C          3.4897315237        12.1698065192         9.0256391887
C          2.6129607512        11.0721442586         9.3376192989
C          1.2383999633        11.3400678263         9.6160790941
C          0.8199894800        12.6887448308         9.6216521264
H          4.5685721593        12.0793821494         8.8869071846
H          0.6130758006        10.5901365569        10.0926067976
O          1.0623388445        15.0776195637         9.4646311889
H          0.3039185599        15.0411611495        10.0594094863
O         -0.4449927401        12.9400760518         9.9945772945
O          3.8987409606        14.4379029824         8.6131016929
C          3.2896653241         9.6823965166         9.4546748295
C          2.8590676316         8.4746601522        10.0811880720
H          4.3659991615         9.7351973288         9.4187526264
C          1.6415225054         8.2810316505        10.8377087522
H          3.6334295596         7.7863636393        10.0705826792
O          1.6725179358         7.0419985960        11.4061099720
H          0.7824010958         6.9112377252        11.7318631978
O          0.5773478430         8.9295393712        10.9331510433