          28
ANG Step:         18 Time:      372.0671344593
C          4.4692789132        11.6882312176         2.0524480421
C          4.0500266460        10.8680122645         3.2125551084
C          4.8093799818        10.9164646274         4.3501185182
C          5.9188333364        11.8000068061         4.4642345129
C          6.2465019689        12.6681740769         3.3541510161
C          5.6337665416        12.5646220736         2.1239482747
H          4.5071249005        10.3293914560         5.2104273718
H          7.1445730146        13.2305867094         3.5952072174
O          3.7657831458        11.6601355824         0.9520127511
H          4.1879928531        12.2553959512         0.3107200750
O          5.9084658293        13.2060001531         0.9863015133
O          2.9721526920        10.0595288287         3.1105557300
C          6.7251332384        11.6635087383         5.6973226437
C          7.8717991396        12.3392173200         6.2243211728
H          6.2491340744        10.9490248338         6.4011731721
C          8.6878943249        13.3791899171         5.7874051516
H          8.1342018798        11.9390432603         7.1943390702
O          9.6672841383        13.7479545465         6.7597621233
H         10.0397831701        14.5413222545         6.3281910569
O          8.6866035809        14.1443692657         4.7699112976
C          7.1186342450        13.9640522088         0.7216930463
H          6.8192568586        14.5206025246        -0.1857073106
H          7.4024839682        14.6765611722         1.5133738794
H          7.9387119581        13.2851826272         0.5116888094
C          1.8068670974        10.5661992817         3.8299347164
H          2.0828935287        11.1520504511         4.7316885592
H          1.2862749228        11.3006363412         3.1980398433
H          1.1726924434         9.7447417347         4.1682268976
          28
ANG Step:         19 Time:      392.7375308181
C          4.4673525676        11.6894339473         2.0496494992
C          4.0524489693        10.8679429420         3.2133236247
C          4.8087496300        10.9179443220         4.3514387754
C          5.9221325784        11.8005898435         4.4679877886
C          6.2523794868        12.6705735188         3.3546423505
C          5.6367020483        12.5663961168         2.1227462824
H          4.5141336192        10.3347667999         5.2194017064
H          7.1482375563        13.2372771372         3.6033649900
O          3.7628376680        11.6610955819         0.9531960388
H          4.1847167236        12.2596298287         0.3110768556
O          5.9079825152        13.2044752075         0.9851153745
O          2.9709465819        10.0592540107         3.1083776919
C          6.7237061641        11.6627627918         5.6958530058
C          7.8700838780        12.3383925922         6.2258755359
H          6.2546352089        10.9554464868         6.4053385125
C          8.6870014230        13.3794498564         5.7850127809
H          8.1430403423        11.9385870835         7.1938668435
O          9.6703753092        13.7474876267         6.7655736088
H         10.0471893726        14.5349840835         6.3286935648
O          8.6840253596        14.1448904519         4.7658495250
C          7.1152419251        13.9649635217         0.7226034425
H          6.8148853080        14.5136967912        -0.1841312452
H          7.4015690340        14.6706131626         1.5161938661
H          7.9276150010        13.2752508318         0.5049552509
C          1.8081538899        10.5668982966         3.8301625833
H          2.0890084628        11.1452818077         4.7312467229
H          1.2918868476        11.2982794897         3.1962245194
H          1.1743151072         9.7447214494         4.1680515302
          28
ANG Step:         38 Time:      785.4750616362
C          4.4777122252        11.7045206524         2.0795499137
C          4.1003978605        10.8881374142         3.1713277724
C          4.8187030372        10.9722637501         4.3890888462
C          5.9790971767        11.8247011009         4.4800554537
C          6.3821698216        12.6865726532         3.4097404671
C          5.6486075970        12.5518906945         2.1640867083
H          4.5646008396        10.3596124320         5.2476012822
H          7.1725863622        13.4147204469         3.5113487928
O          3.6853697639        11.6779804517         0.9383174906
H          4.0959059241        12.3037616573         0.3150736206
O          5.8863812644        13.1848221115         0.9570850405
O          2.9501880939        10.0676383648         3.0746651307
C          6.7369904326        11.6823580908         5.7092522044
C          7.8176889152        12.3026321745         6.2349859104
H          6.3211283745        10.9663349710         6.4355955836
C          8.7129573533        13.4543627869         5.7490661159
H          8.2337596105        11.9492999164         7.1715803943
O          9.6906517280        13.7235383385         6.8280397389
H         10.2335655657        14.4282097725         6.4209656108
O          8.6286108238        14.1174527983         4.7176363088
C          7.0466763745        13.9500563754         0.7269410590
H          6.8478080953        14.5550992233        -0.1757973807
H          7.3431839584        14.5505253253         1.6020729569
H          7.8248572407        13.2303020323         0.4722882224
C          1.8469123842        10.5797652071         3.8280867607
H          2.2241528161        11.0410430728         4.7545288343
H          1.2658187260        11.2519489569         3.1734890270
H          1.2049648114         9.7179687678         4.0482157411
          28
ANG Step:         57 Time:     1178.2125924543
C          4.4905911834        11.7109906315         2.0700524410
C          4.0969399535        10.9021449610         3.1470335144
C          4.8657812675        11.0716439529         4.3794887875
C          6.0189031821        11.8215796531         4.5050266041
C          6.4182348926        12.6553686845         3.3773805084
C          5.6384164332        12.5179101950         2.2195329635
H          4.5621778207        10.3661262049         5.1436411140
H          7.2633492958        13.3290840206         3.5484442032
O          3.6444508863        11.7010702334         0.9551913654
H          4.0436573838        12.3013955799         0.3077588216
O          5.8198754695        13.1515995523         0.9799194377
O          3.0101204409        10.1349983099         3.0341389182
C          6.7388330955        11.7012439146         5.7529329340
C          7.9052547783        12.3835235842         6.2252859095
H          6.3138808040        10.8610645921         6.3289342180
C          8.6918803862        13.4508174709         5.8168380826
H          8.1111907384        11.9435182519         7.1998734345
O          9.6499382761        13.6958692705         6.7837835062
H         10.3162567068        14.3576881795         6.5431018949
O          8.6018149811        14.0866051066         4.7019600036
C          7.0223049166        13.9103839581         0.7272760360
H          6.8080006565        14.6504279066        -0.0658698676
H          7.2494295858        14.5417692532         1.6047082185
H          7.9237950207        13.3424264417         0.5249737215
C          1.8739279539        10.5665571192         3.8230230796
H          2.1438161839        11.0646308521         4.7780759420
H          1.3347693958        11.3686305781         3.2827656266
H          1.2523589126         9.6923170691         4.0352569304
          28
ANG Step:         80 Time:     1653.6317087078
C          4.4559171782        11.6814445098         2.0366957951
C          4.1513403105        11.0337364931         3.1488325431
C          4.8757556154        11.1032542310         4.3302062323
C          6.0667745463        11.8531828642         4.5074617493
C          6.4044695251        12.5509050832         3.3785462434
C          5.5822870585        12.4849608022         2.1269132628
H          4.5620951582        10.5204954217         5.1902840653
H          7.3345310878        13.0990308437         3.3375525858
O          3.6403381456        11.7405712012         0.9965764564
H          4.0517619529        12.2847537187         0.2930785027
O          5.8048259695        13.1312119010         1.0397633098
O          3.0624679148        10.2167258185         3.0219470104
C          6.8074779750        11.7636887353         5.7895473545
C          7.8816019755        12.3529291713         6.2918937538
H          6.5428912768        10.9315290911         6.4548595732
C          8.6470205955        13.4555953687         5.7960154330
H          8.2882030288        12.1200150179         7.2659716600
O          9.6260832240        13.6908544225         6.7268238617
H         10.1373360197        14.3726525910         6.2633663507
O          8.6124413008        14.0549556560         4.7470506230
C          6.9797492804        13.9220074233         0.7934998288
H          6.6892385852        14.4636566210        -0.1161440131
H          7.2389477544        14.5298055421         1.6761504141
H          7.7366421301        13.1977652058         0.5174211783
C          1.9174833664        10.5643422005         3.8272516639
H          2.2648035921        10.8572597850         4.8343510424
H          1.3338102590        11.3187793227         3.2672296468
H          1.2944532722         9.6591349404         3.8730280289
          28
ANG Step:        284 Time:     5870.3925659128
C          4.5092568190        11.8064567581         2.0742965158
C          4.0421465534        11.1449462971         3.1956816848
C          4.7608723065        10.9880510776         4.4732844944
C          5.9384300573        11.6247250374         4.6179643085
C          6.3936695724        12.3829564303         3.4805937710
C          5.7019776307        12.5283845063         2.2847358191
H          4.4687592683        10.2742658516         5.2289082711
H          7.2744835513        12.9883699254         3.6710669495
O          3.7643612287        11.9872225033         0.9365434242
H          4.3446796353        12.5574115193         0.4113056516
O          6.1656337884        13.2189146101         1.1729760990
O          2.7661477871        10.6744296155         3.0380290010
C          6.7792460512        11.6507415026         5.8380249342
C          7.8764287936        12.4108343113         6.0566390895
H          6.5009132100        10.9713869310         6.6440153331
C          8.6035961233        13.5131356653         5.3885358986
H          8.2926724291        12.0675138512         7.0543817841
O          9.5621652462        13.9615219788         6.2905089398
H          9.9786208681        14.7480767015         5.8892049909
O          8.5332935295        14.0542909939         4.3244140189
C          7.2388215021        14.0652603235         1.4941059988
H          7.4080300896        14.7984207219         0.6936467316
H          6.9455822545        14.6399104339         2.3639185899
H          8.1943203188        13.6042991432         1.7343531270
C          2.1394176378        10.3104615897         4.2517232850
H          2.6331468215         9.5060752999         4.7860453391
H          2.0927030298        11.1689550160         4.9112476164
H          1.1587802767         9.9513075099         3.9821942801
          28
ANG Step:        296 Time:     6118.4373222190
C          4.4857518572        11.8031748822         2.0667669745
C          4.0067583364        11.1102598879         3.2342157440
C          4.7558876504        10.9689017648         4.4969185248
C          5.9747726252        11.6208873819         4.6053041600
C          6.3664297371        12.3839109371         3.4873067014
C          5.7163947769        12.5013967458         2.3095647011
H          4.4613964160        10.3577476365         5.3476655066
H          7.3013006888        12.8986477151         3.6683904703
O          3.7821976585        12.0004889420         0.9295953546
H          4.3142793019        12.6074323303         0.3635791754
O          6.1969450843        13.2257620957         1.2013055260
O          2.7219531770        10.7168351787         3.0625753132
C          6.7336075026        11.6580335019         5.8285330738
C          7.8900710203        12.4097913436         6.0012736162
H          6.4953491109        10.9030949449         6.5693207499
C          8.6264141153        13.5051246070         5.4412974792
H          8.3332251420        12.2326794192         6.9333770733
O          9.5626643730        13.9867983787         6.2585480510
H          9.9761652569        14.7757073979         5.8945537882
O          8.5201200450        14.0546361270         4.2847239841
C          7.2989665023        14.1195749434         1.5229935596
H          7.3497289195        14.7625079300         0.6498921094
H          6.9720523505        14.7039657537         2.3918236466
H          8.2683371010        13.6304207568         1.7380432952
C          2.1506405850        10.2743676644         4.2453542677
H          2.6963452064         9.3809686324         4.6063408661
H          2.1971396919        11.1482272815         4.9180054636
H          1.0891544255        10.0645935160         4.0352902489
          28
ANG Step:        317 Time:     6552.5156457548
C          4.5138457395        11.8363533599         2.1180215290
C          3.9651806625        11.0998256486         3.2209100943
C          4.7440971841        10.9468820057         4.4678862877
C          5.9447941987        11.6235453048         4.5726760780
C          6.4068174825        12.3925009556         3.4999323916
C          5.7108384514        12.4478377203         2.2458473680
H          4.2502754375        10.5082830651         5.3229292179
H          7.3684637425        12.8574401847         3.4707998234
O          3.7983399677        12.0007390832         0.9316224200
H          4.2983107070        12.6550151319         0.4113481900
O          6.2449493321        13.2129613425         1.3041393328
O          2.6890699254        10.7849554850         3.0955328005
C          6.7273924083        11.6739896044         5.8066856147
C          7.9280507546        12.4003974816         6.0140775559
H          6.5248629080        10.8815664432         6.5192239584
C          8.5994326969        13.5210295142         5.3622620117
H          8.3417000402        12.2281211592         6.9573391206
O          9.6005735336        14.0354348649         6.2629812734
H          9.8895826448        14.7421623532         5.6590338122
O          8.5078670260        14.0438745085         4.2679277972
C          7.3458348209        14.2188645226         1.5504677908
H          7.4310459706        14.7372196341         0.6039976431
H          7.2410159302        14.8890252188         2.4146509634
H          8.2476468730        13.6038045013         1.6970386014
C          2.0928529684        10.2058545044         4.2869788334
H          2.5084348736         9.1880211633         4.4624930198
H          2.2738646882        10.7668752881         5.2261213681
H          1.0161059462        10.0963954644         4.0888576097
          28
ANG Step:        337 Time:     6965.9235729317
C          4.4848075500        11.8511572899         2.0923499713
C          3.9854722833        11.1691212741         3.1772749946
C          4.7185310066        10.9879588200         4.3759528302
C          5.9265544471        11.6539576882         4.5817889543
C          6.4504763043        12.3263920440         3.4540448756
C          5.7941395113        12.4524247031         2.3048206691
H          4.2997033396        10.4360724535         5.2097962231
H          7.3765276372        12.8394620304         3.6324287866
O          3.8012889690        11.9814927834         0.9619248217
H          4.2731074145        12.6698470950         0.4721899412
O          6.2838345193        13.2656396048         1.3386497936
O          2.6465801159        10.8181498584         3.1825315771
C          6.7895195558        11.6751026513         5.7994301730
C          7.9287639645        12.4044368104         6.0667950518
H          6.5286400128        10.9633948779         6.5718691860
C          8.5995990563        13.4861350956         5.4035793016
H          8.3833476337        12.1366390484         6.9652850497
O          9.5984817839        14.0733332300         6.2121208245
H         10.0877871206        14.7479124787         5.7104698629
O          8.5019622008        14.0631787627         4.2239144592
C          7.3609214589        14.2101940765         1.5397645304
H          7.3773927183        14.7845498169         0.6164308044
H          7.1128979651        14.8657886984         2.3933269927
H          8.3356289863        13.7312169237         1.7286647217
C          2.0085935090        10.0997923881         4.3137739833
H          2.2866474491         9.0260119855         4.2738458412
H          2.2176826858        10.6041969619         5.2791677928
H          0.9350457469        10.2316602321         4.0708426175
          28
ANG Step:        538 Time:    11120.6732410601
C          4.4950722322        11.9914283245         2.2616777016
C          4.0125702525        11.2535616118         3.4261110937
C          4.8360778594        11.0807985333         4.5848091401
C          6.0502052631        11.7301787165         4.6701046967
C          6.6005616139        12.2970163027         3.5119883702
C          5.8139927582        12.5340422370         2.3020336732
H          4.2945543309        10.8068083914         5.5132307208
H          7.6666907490        12.2556747593         3.4570135407
O          3.5753240047        12.3292299194         1.2808849842
H          4.1327581226        12.5366811448         0.4937049067
O          6.3570807763        13.0130984161         1.1837107911
O          2.7035760270        10.9674221898         3.3504522433
C          6.7987623687        11.7476343673         5.8992821399
C          8.0035156837        12.4303758738         6.2800825856
H          6.3673645573        11.0081969413         6.6216798284
C          8.5761962065        13.4740714190         5.4765502889
H          8.4034630744        12.1824617103         7.1754398901
O          9.6816789121        14.0830507150         6.1713971538
H          9.8883265249        14.8843537175         5.6747047354
O          8.2440846438        14.0426444699         4.3930149399
C          7.3184003041        14.1183010735         1.2638121829
H          7.3621502911        14.6429277776         0.2995808469
H          7.0937518919        14.8244004947         2.0970795429
H          8.3211843044        13.6098709723         1.3748072470
C          2.1088694189         9.9643207961         4.2561929617
H          2.5910170253         9.0049297038         3.9120019031
H          2.2570422198        10.1915489485         5.3759261130
H          1.0179290759         9.9037937198         3.9645409009
          28
ANG Step:        549 Time:    11348.0476010075
C          4.4857075990        12.0174082381         2.2483933708
C          4.0239954265        11.2557101589         3.3915924076
C          4.8126119293        11.0655800144         4.5876909761
C          6.0378231464        11.7738280923         4.6942533174
C          6.6058194832        12.2835331381         3.5052419738
C          5.8350142130        12.5424550083         2.3492054783
H          4.4279794975        10.6599116098         5.5015273892
H          7.6814976417        12.1882922030         3.3579768704
O          3.5766345259        12.3370830422         1.2858920571
H          4.0707721441        12.6729242400         0.5086473281
O          6.3636541243        12.9990699508         1.1679534797
O          2.7265180926        10.9664816367         3.3961836882
C          6.7734306332        11.7738520411         5.9025123640
C          7.9738725925        12.4287186818         6.2169750341
H          6.5262492185        11.0616992813         6.6502590829
C          8.5950287502        13.4858703330         5.5038762949
H          8.5017957030        12.1587108112         7.2344112768
O          9.6875740424        14.0678948980         6.1812343623
H          9.8514757703        14.9071562483         5.6833071105
O          8.1934006834        14.0282878288         4.4218751666
C          7.3264778076        14.0871631519         1.2665082412
H          7.2853453959        14.5657633241         0.2842203059
H          7.1681383297        14.7747074356         2.0827230023
H          8.2635762698        13.6123109296         1.3962521902
C          2.1338311289         9.9436165207         4.2688130559
H          2.6772542600         9.0594383660         4.0376939632
H          2.2059818110        10.1972715824         5.2788670395
H          1.0967744352         9.9124167356         4.0644261114
          28
ANG Step:        561 Time:    11596.0923573136
C          4.5003443280        12.0510072198         2.2793753827
C          4.0464092721        11.2779643628         3.3670996830
C          4.8087172863        11.0923474707         4.5731054579
C          6.0061798278        11.7929272925         4.7172031739
C          6.6178961348        12.2650001520         3.4670388187
C          5.8201544330        12.5198244100         2.3809885871
H          4.5015768145        10.4071624881         5.3966909846
H          7.6842980522        12.2062406724         3.2827798898
O          3.5860107794        12.3428194855         1.2852306190
H          4.0155873837        12.8153286115         0.5809565365
O          6.3577320587        12.9959674514         1.1657040959
O          2.7260175006        10.9556620980         3.4407493659
C          6.7764183619        11.7980029583         5.9354602973
C          7.9554691606        12.4319998845         6.1613434353
H          6.5432390254        11.0338409602         6.7252247992
C          8.6071785899        13.5165929698         5.5426685525
H          8.4550871414        12.1858272862         7.0099289043
O          9.6808756101        14.0458838646         6.1747857222
H          9.8462409361        14.8722293740         5.7091997724
O          8.1454309655        14.0100917926         4.4655570029
C          7.3369872849        14.0318871924         1.2593054721
H          7.2104015181        14.5517127226         0.2698269948
H          7.1392324124        14.7109789714         2.1008147317
H          8.3902803218        13.6545390183         1.4372911392
C          2.1893593794         9.9444832314         4.2641281300
H          2.7110970553         8.9259939756         4.2306614478
H          2.2590491682        10.2703147657         5.3745023208
H          1.1024319651         9.8837287919         3.9982619361
          28
ANG Step:        571 Time:    11802.7963209021
C          4.4983121409        12.0821545814         2.3124100688
C          4.0469652934        11.2941709868         3.3814102551
C          4.8263774085        11.1231873488         4.5564164693
C          5.9964117102        11.7940508831         4.7254737885
C          6.6223748412        12.2426605369         3.4582113952
C          5.8033332959        12.5011269823         2.3521790811
H          4.5114285847        10.3216745605         5.1851926600
H          7.6942357267        12.2450232259         3.3152942684
O          3.6008369305        12.3430451674         1.2901004437
H          4.0576471694        12.9570768552         0.6473130771
O          6.3401982748        12.9869962892         1.1839799142
O          2.7282888620        10.9463028227         3.4523529936
C          6.7655567162        11.7946881092         5.9644604225
C          7.9696864018        12.4498468476         6.1325849146
H          6.4642125546        11.0749663206         6.6775350252
C          8.5770616346        13.5356970845         5.5505298472
H          8.5233252227        12.0750907179         7.1032295477
O          9.6782381820        14.0287771306         6.1668138956
H          9.8954907753        14.8676584240         5.7101899351
O          8.1156202742        14.0085360257         4.5017806756
C          7.3517702592        13.9911756946         1.2541783116
H          7.2760355801        14.5554565960         0.3327777434
H          7.0717312528        14.6487104475         2.0739511805
H          8.3643641033        13.6894788307         1.3771540287
C          2.2363427183         9.9451321881         4.2942435905
H          2.6717909207         8.9751878781         4.2758802677
H          2.2704740222        10.2857689710         5.2798041459
H          1.2446528578         9.8136615965         3.9271115621
          28
ANG Step:        581 Time:    12009.5002844906
C          4.4601166920        12.1081665057         2.3336903024
C          4.0275619130        11.3156335562         3.4123881852
C          4.8404368629        11.1385552204         4.5301369746
C          6.0321205726        11.8000567130         4.7219548423
C          6.6080044994        12.2194643237         3.4729640149
C          5.8143682384        12.4843282915         2.3122053418
H          4.4961141265        10.2981726175         5.1597540489
H          7.6865357667        12.2817706983         3.4060457603
O          3.6264828721        12.3478752331         1.2941410219
H          4.0734162487        13.0174741681         0.7846506201
O          6.3173241463        12.9713726491         1.1975522983
O          2.7481260648        10.9427073832         3.4350918609
C          6.7479480035        11.7916221551         5.9653361844
C          8.0016317035        12.4280507325         6.1799974269
H          6.3634991956        11.0605095087         6.7232915552
C          8.5332344299        13.5465853096         5.5485079518
H          8.4861311034        12.0758625683         6.9886897500
O          9.6830973210        14.0180239864         6.1588907767
H          9.9529275565        14.8309803645         5.6983992634
O          8.0862567930        14.0342029023         4.5161518735
C          7.3493434258        13.9698146559         1.2561950289
H          7.3466338853        14.5663749632         0.3238579866
H          7.0866649822        14.6396768703         2.0905732111
H          8.4003216350        13.5557551966         1.3538337546
C          2.2715188159         9.9446683591         4.3265090956
H          2.8298797061         8.9613644234         4.2192203863
H          2.2117941439        10.3451986738         5.4027111284
H          1.2471585220         9.7388552916         3.9185869137
          28
ANG Step:        595 Time:    12298.8858335145
C          4.4280598061        12.1358381391         2.3572827337
C          3.9994525629        11.3761775131         3.4412065692
C          4.8613325674        11.1213714460         4.5253983263
C          6.0906176843        11.7972466599         4.7032631514
C          6.5897598381        12.2092933406         3.4880183082
C          5.8166700543        12.4301661234         2.3282707778
H          4.5498531128        10.4878483774         5.3513360533
H          7.6445059496        12.3157769186         3.4613321627
O          3.6529567793        12.3630991137         1.2894126098
H          4.0602848832        13.1015975852         0.8318051865
O          6.2925994372        12.9644877651         1.1730586800
O          2.7630583820        10.9300965827         3.3951666868
C          6.7532938319        11.7850971752         5.9660991255
C          7.9953888789        12.3625591743         6.2684103087
H          6.3356157703        11.1602737090         6.7062396392
C          8.4927285078        13.5390925021         5.5636192228
H          8.6416417135        12.0443499518         7.1645160800
O          9.6882657154        14.0060046717         6.1432075785
H          9.9845650967        14.7533467202         5.6236316898
O          8.0396699356        14.1082811175         4.5061921797
C          7.3545152817        13.9523489718         1.2642301684
H          7.3313666606        14.4394414158         0.3424026497
H          7.2758949398        14.6271825881         2.1465250979
H          8.2379194456        13.3531660787         1.4003535660
C          2.3041302108         9.9342813073         4.3667918520
H          3.0200403547         9.1741830463         4.2873324592
H          2.2057652041        10.2778119948         5.3512172921
H          1.3062251490         9.6556792927         4.0516158634
          28
ANG Step:        604 Time:    12484.9194007441
C          4.4481489098        12.1531727468         2.3664032587
C          3.9894112572        11.4155902109         3.4605609549
C          4.8876741577        11.1143472302         4.5532123230
C          6.0913669775        11.7708003068         4.6969668500
C          6.6051190823        12.2225817750         3.4754298631
C          5.7963779196        12.3943229654         2.3569057584
H          4.5374837768        10.6347144112         5.4791720308
H          7.6867544449        12.3534394391         3.3913241385
O          3.6569600000        12.3784561248         1.2770956604
H          4.0447531757        13.1451902076         0.7876763686
O          6.2710383858        12.9685137933         1.1548646569
O          2.7467385483        10.9140148015         3.3751957109
C          6.7822953704        11.7793890679         5.9749964423
C          7.9927281860        12.3390411903         6.3209300121
H          6.2753074567        11.1398069160         6.7530816887
C          8.4770882552        13.5252488514         5.5727762890
H          8.5654110386        12.1028882542         7.1317297028
O          9.6812650518        13.9943177866         6.1275050347
H          9.9768474817        14.7239895941         5.5266918929
O          8.0158318135        14.1525247865         4.5174294683