          28
ANG Step:       1873 Time:    38715.6523801220
C         10.2329620177        -3.6479027249        -6.5600899141
C          9.2404759172        -3.3236497830        -7.5414090376
C          7.8319972919        -3.2581856479        -7.2246542272
C          7.4083617214        -3.5702097939        -5.9680338688
C          8.3716808296        -4.0474852203        -4.9716355083
C          9.7244083071        -4.0891406427        -5.2549243590
H          7.1378123872        -2.9975272455        -8.0722643957
H          8.0008968801        -4.3888581699        -4.0358581872
O         11.5284953503        -3.7543596515        -6.8582587847
H         11.8073634389        -4.3878701299        -6.1691495686
O         10.7130277720        -4.3510968214        -4.3958730799
O          9.5054213488        -2.9318693286        -8.8209289897
C          5.9269104994        -3.3648216609        -5.5915266321
C          4.9716872332        -4.4344573205        -5.7194348252
H          5.6171365770        -2.2821430209        -5.4973638876
C          5.2036528142        -5.6983367019        -6.2419365697
H          3.9604214393        -4.1541614559        -5.4437047287
O          4.1353154240        -6.5311319203        -6.3404540997
H          4.4782698490        -7.4062816377        -6.1930654502
O          6.3954924621        -6.1621746332        -6.5817801410
C         10.4304471427        -4.5639245455        -3.0058271730
H          9.4896009776        -5.1465284460        -2.9080603847
H         11.3236748928        -5.1188265004        -2.7456593672
H         10.4421047678        -3.6421942114        -2.4202535056
C         10.6819822658        -2.2658858241        -9.3582832370
H         11.4744665250        -3.0141384729        -9.3163120553
H         10.4702714286        -2.0521419434       -10.4383994596
H         10.9321679107        -1.4019335251        -8.7315977744
          28
ANG Step:       1879 Time:    38839.6747582751
C         10.2340993937        -3.6559853609        -6.5467286082
C          9.2510396623        -3.3290260902        -7.5442688189
C          7.8599793646        -3.2419758932        -7.2333492166
C          7.4137229035        -3.5692590651        -5.9837707960
C          8.3681792237        -4.0627463669        -4.9860026610
C          9.7077261213        -4.0730712545        -5.2617047341
H          7.1382015852        -2.9852743148        -7.9704450883
H          7.8849536826        -4.4044796426        -4.0473786038
O         11.5182263345        -3.7512286968        -6.8648718279
H         11.8539201128        -4.4390298550        -6.2452520342
O         10.6877136325        -4.3471227316        -4.3979091979
O          9.5205349642        -2.9391601188        -8.8222634795
C          5.9373148946        -3.3543462188        -5.5986822321
C          4.9783827451        -4.4280740519        -5.6828416508
H          5.5942380940        -2.3550934186        -5.4752950554
C          5.2328055849        -5.6913304797        -6.2587193684
H          3.9839306461        -4.2079132028        -5.3950520975
O          4.1198430393        -6.5304315779        -6.3381904937
H          4.4722037000        -7.4444187220        -6.1592601030
O          6.4105531204        -6.1804139905        -6.6008771490
C         10.4341474268        -4.5565778942        -3.0229147455
H          9.4491305039        -5.1000181548        -2.8392467642
H         11.3152705284        -5.1386734075        -2.6680643473
H         10.4761214642        -3.6074004166        -2.4461274068
C         10.6602043280        -2.2609224617        -9.3533146407
H         11.4867702123        -3.0078528462        -9.3607815200
H         10.4832379197        -2.0327220427       -10.4036349452
H         10.9483262470        -1.4376766119        -8.6477563829
          28
ANG Step:       1893 Time:    39129.0603072990
C         10.1914162953        -3.6795834048        -6.5319624475
C          9.2638777010        -3.2975854014        -7.5779448051
C          7.9413716479        -3.2241810208        -7.2450779025
C          7.4034550537        -3.5768344831        -5.9949245692
C          8.3211339809        -4.0801868552        -5.0344591584
C          9.6663560982        -4.0281998263        -5.2711958061
H          7.1583088329        -2.8569391470        -7.9611038811
H          7.8545135544        -4.3794253296        -4.1363378387
O         11.4985536370        -3.7559255358        -6.8754252057
H         12.0485737602        -4.3927145182        -6.3966950498
O         10.6541973866        -4.3504431294        -4.4033939131
O          9.5364547729        -2.9659073840        -8.8242404705
C          5.9666907239        -3.3812700448        -5.6187503744
C          5.0297502251        -4.4011859071        -5.6273981134
H          5.5988872918        -2.3571275747        -5.3115442872
C          5.3434980367        -5.7015803147        -6.2934205582
H          3.9915541501        -4.2895234789        -5.3067870832
O          4.0951248070        -6.5287886700        -6.3244302377
H          4.4433448359        -7.4259303476        -6.2100492823
O          6.4018100488        -6.1984783958        -6.6305082706
C         10.4469669383        -4.5417043484        -3.0326361485
H          9.4884764236        -4.9648158018        -2.7232465705
H         11.1660175157        -5.1931021106        -2.5680399637
H         10.4658570210        -3.5475858097        -2.5962682841
C         10.6507082711        -2.2824179993        -9.3071799308
H         11.5304985823        -2.9042763429        -9.4448696166
H         10.3482873876        -1.8245120260       -10.2905250788
H         10.9451156767        -1.4698552299        -8.6508076778
          28
ANG Step:       1976 Time:    40844.7032050833
C         10.0912995071        -3.6930560336        -6.6306969322
C          9.1804578998        -3.3235776041        -7.6990829949
C          7.8279820342        -3.1292920986        -7.3504789376
C          7.3752048175        -3.4648088153        -6.0541046004
C          8.3414848077        -4.0252350431        -5.0685187376
C          9.6653269051        -4.1061522081        -5.3439767723
H          7.1093684877        -2.6591743805        -8.0673807717
H          7.8381960619        -4.2824899170        -4.1713238956
O         11.3813180112        -3.7884262783        -6.8688417369
H         11.6504764211        -4.1286586281        -5.9637105925
O         10.6855214635        -4.4566463672        -4.4895734083
O          9.6873926008        -3.0835407699        -8.9744964844
C          5.9928188303        -3.3633581325        -5.6014029168
C          5.1644978348        -4.4813091910        -5.5529323984
H          5.7386199738        -2.3859065327        -5.1197424110
C          5.4047286418        -5.7867061049        -6.2660833967
H          4.1588060179        -4.3587179923        -5.1200468004
O          4.2074894531        -6.5570874604        -6.2293626130
H          4.4137918929        -7.0580352264        -7.0246202559
O          6.4307587193        -6.1857272572        -6.8238267801
C         10.3706452513        -4.3715992220        -3.0641273739
H          9.4883726934        -4.9275310282        -2.8003899948
H         11.1522620314        -4.9329786023        -2.5895212990
H         10.3224860762        -3.3722236491        -2.6504104969
C         10.8155622741        -2.1830740496        -9.1118138848
H         11.6061487218        -2.6694993119        -9.6567231582
H         10.4881646918        -1.3668337237        -9.7815761098
H         11.2352993662        -1.8331083084        -8.2082686501
          28
ANG Step:       1995 Time:    41237.4407359014
C         10.0889372733        -3.7419387170        -6.6796371136
C          9.2297376740        -3.3325541264        -7.6844543006
C          7.8797246584        -3.1912396552        -7.3740836513
C          7.3883815995        -3.4621497698        -6.0891142407
C          8.2800366772        -3.9677758188        -5.0889868193
C          9.6256687776        -4.0585069832        -5.3556710411
H          7.2088953914        -2.7844064782        -8.1796699958
H          7.8639749097        -4.2518493199        -4.1582624773
O         11.3990237595        -3.7847389964        -6.8758401560
H         11.8814091972        -4.3016610569        -6.1830512753
O         10.6852516691        -4.4745855485        -4.5288929736
O          9.6720645014        -3.0872442853        -8.9212236696
C          5.9713407057        -3.3351169736        -5.5270067359
C          5.1841748649        -4.5437412814        -5.5740301172
H          5.4778911257        -2.3966692091        -5.2550357314
C          5.3538458642        -5.7296475895        -6.2548799067
H          4.1215569829        -4.3416428887        -5.2788831485
O          4.2641197031        -6.5949686733        -6.2388410298
H          4.3600976006        -7.3548302952        -6.7971175507
O          6.4235656110        -6.1297288554        -6.8454742356
C         10.3810499392        -4.3698048377        -3.0971626109
H          9.5133955587        -4.9576701827        -2.9075061764
H         11.2625089390        -4.7405914317        -2.5727111216
H         10.1540415248        -3.3175055968        -2.8684539623
C         10.8445682243        -2.1571759688        -9.0978088791
H         11.5772843364        -2.7729425732        -9.5784639812
H         10.5866239897        -1.2126388359        -9.5674256528
H         11.2064460142        -1.8918523847        -8.1337761039
          28
ANG Step:       1338 Time:    27656.9903281384
C          3.8116046774        24.3535607354        16.4469256553
C          3.4735550291        24.6274365192        17.7815977961
C          3.6641290097        23.5557579308        18.7325575315
C          4.1662443562        22.3230357611        18.3099844586
C          4.5401561465        22.1740280237        16.9314434037
C          4.2772621015        23.1248784045        15.9996968608
H          3.3134882101        23.7473341968        19.7555076954
H          4.9887567882        21.2658268885        16.6542932784
O          3.6914992183        25.3018930167        15.4604953635
H          3.9323840262        24.7513914703        14.7072864659
O          4.5025913378        23.1300811709        14.6080952971
O          2.8409409426        25.6895027890        18.3394447596
C          4.0396335225        21.0804506349        19.1824483344
C          2.8769902783        20.2843274181        19.0291181890
H          4.7763013011        20.6541104876        19.8751554789
C          1.7357759194        20.5897974579        18.1967922252
H          2.6772810056        19.4857703078        19.6788850922
O          0.7414730065        19.7176242190        18.3693852934
H          0.0175877190        20.1038634182        17.7761731655
O          1.7916134530        21.2948196742        17.1275942677
C          4.2141035805        21.8874637605        13.8877728558
H          3.9315484964        21.0506362824        14.5366316454
H          3.4745828652        22.0496994242        13.0843156548
H          5.2680009452        21.5698386418        13.4670207209
C          2.8161931329        26.9474564195        17.6016509262
H          2.2112529491        26.8671722372        16.6824639693
H          2.3729151357        27.6524924763        18.2874247866
H          3.8368786301        27.2417967331        17.3276678802
          28
ANG Step:       1339 Time:    27677.6607244973
C          3.8122799779        24.3516275866        16.4434119652
C          3.4703843461        24.6295291067        17.7787620376
C          3.6642783356        23.5582836158        18.7340167761
C          4.1655264337        22.3204776414        18.3074585901
C          4.5381916901        22.1750699061        16.9303327574
C          4.2759152509        23.1262718813        16.0016118607
H          3.3157232999        23.7393117427        19.7590079652
H          4.9944547352        21.2626652436        16.6562490812
O          3.6932697632        25.3044999980        15.4635617793
H          3.9333367495        24.7566926983        14.7010268280
O          4.5063706141        23.1305299017        14.6044378728
O          2.8393763654        25.6871166455        18.3397610410
C          4.0398686686        21.0771059603        19.1838285628
C          2.8800736855        20.2840049056        19.0296559345
H          4.7765111936        20.6686828111        19.8710452307
C          1.7362862589        20.5931487807        18.1993400495
H          2.6778513247        19.4712207817        19.6580527838
O          0.7410073849        19.7198004310        18.3719916804
H          0.0242733105        20.1017743828        17.7800272374
O          1.7903041124        21.2928170799        17.1289021681
C          4.2158879803        21.8882057862        13.8868495633
H          3.9240630520        21.0538125121        14.5294353183
H          3.4699026978        22.0498534444        13.0813742729
H          5.2731453550        21.5707129055        13.4785426321
C          2.8152465373        26.9467201986        17.6000042515
H          2.2144686178        26.8616166972        16.6817610409
H          2.3653753184        27.6381719720        18.2832672851
H          3.8382064299        27.2312094199        17.3225736677
          28
ANG Step:       1347 Time:    27843.0238953680
C          3.8112971397        24.3583883681        16.4069695824
C          3.4438506401        24.6326386600        17.7795590027
C          3.6688322482        23.5755431942        18.7357565830
C          4.1511018681        22.3024707447        18.2996756219
C          4.5258024318        22.1756626210        16.9208343256
C          4.2704374179        23.1336289825        16.0059853321
H          3.3423602877        23.6681042753        19.7572440887
H          5.0323003161        21.2148478734        16.6550536399
O          3.7070022648        25.3219142090        15.4916353543
H          3.9351866342        24.8355206161        14.6154824972
O          4.5327883895        23.1294898609        14.5834053534
O          2.8306068112        25.6703660116        18.3334331437
C          4.0375511040        21.0531740010        19.1881221018
C          2.8968778431        20.2912612838        19.0289964404
H          4.8387938299        20.8147179258        19.8532448528
C          1.7661811576        20.6184567217        18.2120315257
H          2.7136777627        19.3108697047        19.5671236441
O          0.7259707713        19.7345237953        18.3943928667
H          0.0734102074        20.0539514186        17.8033103921
O          1.7769879284        21.2801786199        17.1422079508
C          4.2435801601        21.8922551899        13.8751476654
H          3.8321523697        21.1031886694        14.5102477905
H          3.4899745797        22.0623934836        13.0971566302
H          5.1842943601        21.5996911789        13.5551262236
C          2.8088096089        26.9335737620        17.5843848467
H          2.2330257167        26.8110662870        16.6803222623
H          2.2935771235        27.5892296650        18.2870801661
H          3.8352465985        27.1652435026        17.3006441239
          28
ANG Step:       1563 Time:    32307.8295088792
C          3.8686222813        24.4492215891        16.2585007937
C          3.4038434452        24.6021296969        17.6313564822
C          3.4225775171        23.3840174869        18.4023483834
C          3.9597171627        22.1571313266        18.0090192057
C          4.4905296517        22.0879864950        16.6246762128
C          4.3781705282        23.1815581283        15.8025621827
H          3.0608254914        23.4114611585        19.4384397226
H          5.0300651879        21.2140444005        16.4491395817
O          3.9665400055        25.5585112939        15.4847247410
H          4.1864867421        25.3495935048        14.5798496215
O          4.8676414665        23.2988540169        14.5000413184
O          3.0175482082        25.7087538817        18.2661200404
C          4.0730564209        21.0392110669        19.0376524282
C          2.9749485408        20.2655324748        19.2474576709
H          4.8874956484        21.0237252191        19.8094498660
C          1.7379702115        20.5509817438        18.6243055402
H          3.0168924308        19.6488787341        20.1519086526
O          0.6609830985        19.6799125004        18.9257130575
H          0.0477726376        19.7470580922        18.2105418384
O          1.6749458968        21.1441155266        17.4768134830
C          4.6596017823        22.2708679073        13.5567770759
H          3.5693242209        22.1815069004        13.1912408146
H          5.3259472777        22.4152946913        12.7198053240
H          4.8523701993        21.3620029483        14.0449792334
C          2.2714022127        26.6792795306        17.4772012882
H          1.5243548815        26.2013951960        16.8382164411
H          1.7299503386        27.3042700762        18.2247396634
H          2.9444855622        27.2069960000        16.8136719347
          28
ANG Step:       1570 Time:    32452.5222833911
C          3.8595824309        24.4254435976        16.2562658153
C          3.4085403574        24.5925072325        17.6226780554
C          3.4306298311        23.3813009582        18.4134886960
C          3.9589887767        22.1511017767        18.0103529001
C          4.4623332115        22.0981577118        16.6184942698
C          4.3961733658        23.1903200138        15.8082356245
H          3.0289073157        23.4478372587        19.4100419214
H          5.0441085827        21.1637002008        16.3624607799
O          3.9671905162        25.5616905276        15.5080217256
H          4.1690451252        25.2803830480        14.5592457948
O          4.8812032918        23.3098384483        14.4905655125
O          3.0311965592        25.7108759603        18.2504080641
C          4.0807571541        21.0599968144        19.0414141296
C          2.9820497742        20.2599194036        19.2671459081
H          4.8191322386        21.0207709290        19.8019134743
C          1.7363019242        20.5329435052        18.6252119662
H          2.9084630839        19.7045246343        20.1540722153
O          0.6821647173        19.6788562415        18.9439846479
H         -0.0201638775        19.6815306506        18.2174590374
O          1.6453552005        21.1527641769        17.4719287328
C          4.6656555174        22.2832158363        13.5313987597
H          3.6834568447        22.2198712274        13.1237324448
H          5.3062069588        22.4434724288        12.6917266100
H          4.9412469081        21.3431444140        14.0415799139
C          2.2553771401        26.6812355124        17.4642761631
H          1.4901386361        26.1353425492        16.8534259621
H          1.7520698822        27.2223944720        18.2336279314
H          2.9402660676        27.2066475758        16.7916752380
          28
ANG Step:       1756 Time:    36297.2160061368
C          4.0261866185        24.5906594849        16.2023725166
C          3.5319111482        24.6364244840        17.5273219440
C          3.4999096441        23.5262397438        18.3380768658
C          3.9250118199        22.2407163958        17.8905750645
C          4.3916341127        22.2279578688        16.4830738177
C          4.5052160171        23.3510386782        15.7184960514
H          3.1307738583        23.6759852085        19.3333918835
H          4.5427213038        21.1596518942        16.1717667844
O          4.0715111003        25.6718499155        15.4545076131
H          4.3500279342        25.3399503638        14.5396955325
O          4.8756831330        23.4328739876        14.4003624239
O          3.0069030625        25.7475060545        18.0806797137
C          4.0457660270        21.0751327464        18.7433547485
C          3.0333663975        20.1989698677        19.1336127222
H          5.0817989189        21.1500851326        19.1246471283
C          1.6747139786        20.3740077623        18.7366865700
H          3.2460337556        19.4237042024        19.7829403279
O          0.7238897879        19.4508600825        19.2586479975
H          0.0163717098        19.8280220979        18.7400915850
O          1.3843290799        21.1067172886        17.7500025483
C          5.0650118800        22.2106099973        13.7119979479
H          4.0799282743        21.5875464833        13.6982963442
H          5.1575553679        22.4661632402        12.6819440209
H          5.9241997506        21.6478459436        14.0226938905
C          1.9923777855        26.4051772540        17.3768076755
H          1.2876454681        25.6084717353        17.1362415647
H          1.6048051072        27.0637444349        18.1446687899
H          2.4378980129        26.9500533434        16.5510158741
          28
ANG Step:       1767 Time:    36524.5903660841
C          4.0221523904        24.5885555675        16.2043682975
C          3.5363438148        24.6276299775        17.5337711779
C          3.4788220326        23.5127144854        18.3284978475
C          3.9304343365        22.2714087755        17.8721930298
C          4.4085299402        22.2183867714        16.4944803117
C          4.5380839691        23.3606729842        15.6825604062
H          3.0781077753        23.6961681604        19.3322237397
H          4.5870347163        21.2827257904        16.0538128397
O          4.0856331401        25.6849227505        15.4821739331
H          4.2294069212        25.4354278746        14.5736659134
O          4.8446826083        23.4247405265        14.3837118270
O          3.0160723456        25.7460276844        18.0697094833
C          4.0556490628        21.0894341690        18.7192217740
C          3.0161723220        20.1885930764        19.1099230982
H          5.0261947774        21.0411482530        19.1961375737
C          1.7087196135        20.4037365508        18.7706439082
H          3.2840978833        19.2090722599        19.6496924552
O          0.7416709184        19.4638608511        19.2395681133
H         -0.1429577785        19.7852986128        18.8530066610
O          1.3719533580        21.0852466984        17.7759260707
C          5.0863168432        22.1694623619        13.7206272924
H          4.2425704123        21.5850292445        13.9095638468
H          5.2295785654        22.4246475167        12.6413386683
H          5.9626637877        21.5646403866        14.0660645485
C          1.9561257185        26.4196759990        17.3859294726
H          1.2182509819        25.6498990637        17.1181857431
H          1.5517349942        27.2013866021        18.0600981811
H          2.3102248117        27.0125471107        16.5250682312
          28
ANG Step:       1776 Time:    36710.6239333138
C          4.0320451124        24.5768530474        16.2107341284
C          3.5219462320        24.6272909870        17.5464180857
C          3.4687055348        23.5046102893        18.3278108345
C          3.9369259047        22.2992171929        17.8343361945
C          4.4177803397        22.2263830513        16.4996498987
C          4.5411589338        23.3466314457        15.6800867261
H          3.0461924823        23.6199239784        19.3054549013
H          4.6938367090        21.2798686889        15.9805280561
O          4.0914515624        25.7065237646        15.5016227142
H          4.2030535678        25.5051253267        14.5240705799
O          4.8329367406        23.4149925095        14.3645862200
O          3.0301519874        25.7563133359        18.0653197501
C          4.0583497354        21.0769318815        18.7115517199
C          3.0422807341        20.1749962166        19.1082885235
H          4.9950888840        20.9101990507        19.2812374806
C          1.7090835300        20.3975241685        18.7648632430
H          3.2857136521        19.2714349840        19.5383167423
O          0.7562758135        19.4845907393        19.2273075672
H         -0.1063838889        19.7065304968        18.9653147001
O          1.3537067271        21.0879910193        17.7971521470
C          5.1102598476        22.1387638510        13.7173044863
H          4.2239006241        21.4499900296        14.0167988361
H          5.2592205192        22.3632268782        12.6865354515
H          5.9736016774        21.6527232949        14.1484259823
C          1.9258115885        26.4404285073        17.3894722501
H          1.1103152510        25.7796344329        17.0663105008
H          1.4906387248        27.2017466874        18.0365898980
H          2.1979495497        26.9619669576        16.4693026968
          28
ANG Step:       1786 Time:    36917.3278969022
C          4.0528587316        24.5701430613        16.2158235490
C          3.4941475750        24.6307277064        17.5548575677
C          3.4615121144        23.5069096982        18.3265679879
C          3.9527424094        22.2892415827        17.8046091700
C          4.4382323926        22.2335530733        16.4750474098
C          4.5183313427        23.3290215551        15.6916060521
H          3.0059094587        23.4834087829        19.3214703524
H          4.7804654403        21.2977029671        16.1303321317
O          4.0923391829        25.7305559458        15.5172507842
H          4.2332852331        25.5528564524        14.5894609586
O          4.8297794285        23.3965383330        14.3420282167
O          3.0316848048        25.7894195658        18.0583352654
C          4.0676101016        21.0502404566        18.7097918202
C          3.0722914136        20.1835668203        19.0986538944
H          4.9701204197        20.8918563779        19.2515487392
C          1.6933279982        20.3606862280        18.7295867092
H          3.3611614104        19.2124049060        19.6408886523
O          0.7878769219        19.4943759818        19.2364097351
H         -0.1417026608        19.7601766120        18.9427539497
O          1.3267167276        21.1210412326        17.8119840078
C          5.1154248685        22.0999254893        13.7403469379
H          4.3462502093        21.4157319347        13.8974980851
H          5.2457045172        22.2699095061        12.6469093306
H          6.0706179746        21.7908204002        14.2346571322
C          1.8897932752        26.4642719865        17.3810981359
H          1.0410216364        25.8194704278        17.1088475889
H          1.4963508243        27.1622443283        18.1234904203
H          2.2092682982        26.9004037437        16.4282294312
          28
ANG Step:       1859 Time:    38426.2668310981
C          3.9001885491        24.5727846162        16.1650748305
C          3.3825779620        24.6365468348        17.4805931237
C          3.4158746646        23.4686667570        18.2460872443
C          4.0304463442        22.2527897176        17.8068479269
C          4.4387848205        22.1565213393        16.5030920904
C          4.4098541637        23.3030971261        15.6584195682
H          3.0231747963        23.5201557019        19.2397897183
H          4.8566700125        21.1928233293        16.1105296968
O          4.1598587884        25.7160243326        15.5606345037
H          4.6571551382        25.5572547016        14.7586542220
O          4.7569890044        23.2814355417        14.4129064843
O          3.0133263279        25.8356974733        18.0058012175
C          4.2123859806        21.0263689153        18.6141516139
C          3.0836237530        20.2230030238        18.9649474680
H          4.9854869947        21.2682977389        19.3907709171
C          1.7152484026        20.4491666126        18.6611848828
H          3.3429234135        19.3427811252        19.4608727580
O          0.9699357616        19.4608365923        19.2349618209
H          0.0724612591        19.8095149448        18.9195296282
O          1.2601347013        21.3116518778        17.8701817075
C          5.2694629546        22.0743824027        13.8174778949
H          4.6191994931        21.1429146850        13.9972479113
H          5.4811586763        22.4178124391        12.8336024543
H          6.1989785880        21.7980727136        14.2865089484
C          1.8053983853        26.4551111802        17.4272846134
H          0.9416802269        25.7590285281        17.4780764844
H          1.6811477705        27.3764807032        18.0261278619
H          1.9391767866        26.8307629768        16.3870282227
          28
ANG Step:       1874 Time:    38736.3227764808
C          3.8828651467        24.5567149210        16.1578517110
C          3.3592052766        24.5800848669        17.4672461231
C          3.4085795828        23.4884482951        18.2610828015
C          4.0153967885        22.2613989488        17.8301480053
C          4.4137247835        22.1772431346        16.4983142626
C          4.3921459983        23.2535748341        15.6920225693
H          2.9631271203        23.6126149998        19.2476725511
H          4.8390185546        21.2303523467        16.1576310312
O          4.1894073966        25.7025494130        15.5201860343
H          4.5234873400        25.4824832154        14.6538114164
O          4.7588671970        23.2901160400        14.3684370024
O          2.9859601633        25.8062049704        17.9949626631
C          4.1889739835        21.0653454686        18.6302439119
C          3.1556915567        20.2331560737        18.9534164138
H          5.0495798078        21.1213249288        19.2921590643
C          1.7775837186        20.5419560038        18.6994594478
H          3.2117693921        19.2427968917        19.4699047465
O          0.9619182199        19.4511689846        19.1972148604
H          0.0014862373        19.6400643842        18.9327027390
O          1.2464611884        21.3225153604        17.8756210673