          28
ANG Step:        401 Time:     8288.8289398980
C          4.4435204687        11.9536715030         2.2074538954
C          3.9344973512        11.2990531833         3.3645385121
C          4.8116341719        11.1592866341         4.5640574320
C          6.1118520076        11.5912903198         4.5392427584
C          6.6122474180        12.2202505613         3.3636769150
C          5.7254326180        12.5027561096         2.2430637490
H          4.3394763527        10.8749249700         5.5036561278
H          7.6375791852        12.3818433564         3.2283060638
O          3.8099556161        12.0381677530         1.0224720127
H          4.5166241134        12.4596973674         0.4652850153
O          6.1623162844        13.2865589730         1.2063060342
O          2.6529033301        10.9209902005         3.1955366743
C          6.8478852079        11.6425427552         5.7875125292
C          7.9148016504        12.4800896020         6.1699255382
H          6.5734605204        10.9178794917         6.5495176066
C          8.6067537664        13.5639689998         5.4255556040
H          8.2434060461        12.3905445200         7.1518250408
O          9.6521240204        14.0718917787         6.2133668276
H          9.9556997115        14.7972797515         5.6408094031
O          8.4624241973        14.0034636134         4.2814605067
C          7.3108377210        14.1578776120         1.5109415784
H          7.3748403410        14.8151784266         0.6535726838
H          7.0237466806        14.7031044654         2.4165937958
H          8.2645860372        13.6306915962         1.7023625883
C          1.9848565734        10.0036760233         4.1556785422
H          2.2959457541         8.9408840923         4.0092274001
H          2.2005564563        10.2889295609         5.2095028521
H          0.9096181148        10.1445806754         3.9317796537
          28
ANG Step:        411 Time:     8495.5329034865
C          4.4590458436        11.9899698417         2.2275271523
C          3.9408504610        11.2965982135         3.4040947305
C          4.8116932011        11.2144472463         4.5561324023
C          6.1288395433        11.5840139923         4.5496958576
C          6.5713314038        12.1787437038         3.3116865459
C          5.7116047182        12.4920126069         2.2787035830
H          4.3326701130        10.8573913808         5.4953571691
H          7.6151332511        12.3875246356         3.2212496535
O          3.8164101417        12.0517237771         1.0496726918
H          4.5421885959        12.4666306630         0.4853332767
O          6.1408502387        13.2701290485         1.1997376316
O          2.6868030455        10.9377046984         3.1944360231
C          6.8753345681        11.6438302094         5.7739739957
C          7.9226284724        12.5208434448         6.1775367088
H          6.5973205669        10.9308811339         6.5680055788
C          8.6217236113        13.5726598473         5.4434537203
H          8.2436512522        12.4017499916         7.1329264771
O          9.6448766425        14.0580917522         6.2127769293
H          9.9558342039        14.7894225364         5.6369593168
O          8.4469676608        13.9905809331         4.2976529347
C          7.2730310233        14.1296433742         1.4956603853
H          7.3757660780        14.8067880640         0.6535655076
H          7.0089669901        14.6938922818         2.4186289429
H          8.2636814338        13.6258219702         1.7195804245
C          2.0110512422        10.0209515832         4.1142004103
H          2.2911573434         8.9306315110         4.0114688308
H          2.1900654967        10.2885519921         5.2192137481
H          0.9045131021        10.1635770307         3.9350625959
          28
ANG Step:        422 Time:     8722.9072634338
C          4.4537947802        12.0083675685         2.2620544670
C          3.9809239641        11.3225357499         3.4046744882
C          4.7653877096        11.2422759532         4.5617573508
C          6.1326070465        11.6018637342         4.5366798826
C          6.5505822694        12.1235927776         3.2844130469
C          5.7409744945        12.5079835191         2.3084215314
H          4.3451750982        10.7216425266         5.3898549475
H          7.5784816094        12.4933205891         3.2015986027
O          3.8216257678        12.0700028665         1.0673326272
H          4.5083037712        12.5042759309         0.5464022038
O          6.1228823218        13.2387413084         1.1996335590
O          2.7074387847        10.9292790039         3.2154837433
C          6.9370159105        11.6515124571         5.7940594331
C          7.9055849898        12.5582278647         6.1390079153
H          6.7230777964        11.0223086443         6.6367805883
C          8.6176519645        13.5437905724         5.4886780954
H          8.3422339916        12.4383405039         7.2216994158
O          9.6441278323        14.0576195046         6.2068133752
H         10.0490438711        14.7518728860         5.6671586550
O          8.4300661766        13.9867346679         4.3011777527
C          7.2330366214        14.1095200323         1.4958203389
H          7.3810675802        14.7387144402         0.6104643385
H          6.9802511278        14.6566246159         2.3828012596
H          8.1050947144        13.5647025400         1.7476191635
C          2.0251183611        10.0470602158         4.0984288331
H          2.2772798291         9.0280765577         3.9214667268
H          2.1294931439        10.2968003128         5.1092643062
H          1.0056545404        10.2551679813         3.9271709992
          28
ANG Step:        432 Time:     8929.6112270223
C          4.4512591150        12.0267295661         2.2794944577
C          4.0012368532        11.3544884897         3.3836236766
C          4.7407962772        11.2474482928         4.5777164861
C          6.1034642137        11.6198856908         4.5363954773
C          6.5930446247        12.0835022349         3.3013400213
C          5.7471074824        12.5300322876         2.3007533907
H          4.3464622939        10.6378619799         5.4127875328
H          7.5801241396        12.4957919288         3.2727066983
O          3.8188396724        12.0858638736         1.0884379217
H          4.3956826041        12.5858117386         0.4508822681
O          6.1097653903        13.2031478045         1.2045798333
O          2.7293798505        10.9161725327         3.2387904209
C          6.9891720744        11.6547782537         5.8052274971
C          7.9017575705        12.5754611926         6.1499614187
H          6.6870980196        10.9778670267         6.6184978958
C          8.6100283185        13.5419892616         5.4798797662
H          8.2909583467        12.4458061228         7.0752675891
O          9.6539091635        14.0626638294         6.2108373276
H         10.1212849650        14.7168357376         5.6646717311
O          8.4167925376        13.9813073179         4.3133583458
C          7.1882787300        14.0974392885         1.4902181190
H          7.3764472408        14.6721323893         0.5901335084
H          6.9710551336        14.7489976449         2.3704129694
H          8.0878194675        13.4518825488         1.7058184903
C          2.0308317472        10.0832819756         4.0874919133
H          2.3065729994         9.0245483013         3.7952696307
H          2.2252327552        10.3379893941         5.1900517922
H          0.9477973180        10.2674001588         3.8061031205
          28
ANG Step:        443 Time:     9156.9855869696
C          4.4756909017        12.0684226573         2.2520827722
C          3.9782113328        11.3688718890         3.3845136334
C          4.7502021593        11.2354575470         4.6021373826
C          6.0624193218        11.6329518282         4.5743614493
C          6.6522205145        12.0759036333         3.3272006720
C          5.7452974449        12.5235097938         2.3057216769
H          4.3501536496        10.7054036784         5.4364014840
H          7.7137619898        12.3819090673         3.4001171833
O          3.7960226219        12.1013533961         1.1093313010
H          4.2436288009        12.6621810597         0.4463019845
O          6.0994502034        13.1753609905         1.2031127326
O          2.7665886760        10.9197547034         3.2432443237
C          6.9879583559        11.6231509210         5.7874364284
C          7.9085014229        12.5872973673         6.1818476524
H          6.6205088109        10.9100703501         6.5014909386
C          8.6131413465        13.5746909400         5.4392727488
H          8.3294859539        12.3892121894         7.2575501343
O          9.6713280839        14.0692957336         6.2233456725
H         10.1382047234        14.6666353929         5.6090820790
O          8.4030709012        13.9798760885         4.3179275669
C          7.1627549440        14.0824013354         1.4783735384
H          7.3389933767        14.6322082239         0.5447314215
H          6.9822023268        14.7745451701         2.2757143525
H          8.0405797443        13.5188847000         1.6458674157
C          2.0226512069        10.1073796972         4.0927746332
H          2.2846459498         9.1092509241         3.8249208341
H          2.2626009472        10.2651235750         5.0962830215
H          1.0180771996        10.2173999839         3.7948606209
          28
ANG Step:        453 Time:     9363.6895505581
C          4.4882126052        12.0888611766         2.2396232466
C          3.9689391348        11.3833100107         3.4026550172
C          4.7648786119        11.2218186067         4.6069603940
C          6.0640387035        11.6493508991         4.6125570329
C          6.6767844428        12.0938753240         3.3599212588
C          5.7825810288        12.4950080317         2.3351040912
H          4.3038421583        10.8111467370         5.5315212169
H          7.7392060462        12.2163024511         3.4014743162
O          3.7504018431        12.1157712611         1.1179891553
H          4.1820284034        12.7338174219         0.5163686645
O          6.0998880310        13.1654226211         1.1926297699
O          2.7848119820        10.9330057035         3.2240284589
C          6.9534214655        11.5893286199         5.7599018546
C          7.9199658277        12.5744262005         6.2366869526
H          6.6291588298        10.8258261084         6.4903068010
C          8.6209907853        13.5912999381         5.4561337777
H          8.2840789695        12.4178996532         7.1715346436
O          9.6872305906        14.0785873634         6.2241550876
H         10.1577866373        14.6421726869         5.5891628800
O          8.3902246916        13.9946313013         4.2887762448
C          7.1561327001        14.0789077149         1.4349892099
H          7.2640771850        14.6248054532         0.5026654933
H          6.9342896792        14.7783003906         2.2772143178
H          8.1398826292        13.5711339673         1.6793164980
C          2.0254473412        10.1088994497         4.0931014367
H          2.2908081121         9.0278488250         3.8990039879
H          2.2258847737        10.2530784190         5.2103137743
H          0.9305021159        10.2615074169         3.8615769951
          28
ANG Step:        464 Time:     9591.0639105054
C          4.4795315941        12.0707029452         2.2792410396
C          4.0044474959        11.4152709470         3.4193725715
C          4.7670638147        11.2117505170         4.6081323851
C          6.0986842794        11.6688433772         4.6224526262
C          6.6633460074        12.1186497580         3.4121942071
C          5.8419421930        12.4627789800         2.3495119731
H          4.2883457312        10.9647177736         5.5283460267
H          7.7573029064        12.0878626874         3.2621406935
O          3.6928648529        12.1376094154         1.1259499630
H          4.1620642730        12.8282067665         0.5704818600
O          6.1202284481        13.1561726301         1.1849566480
O          2.7612352185        10.9365647154         3.1971330896
C          6.9348748233        11.5770524340         5.7784145423
C          7.9001244444        12.5368870239         6.2379986658
H          6.7271705739        10.8033505847         6.4918841544
C          8.6116095805        13.5900702634         5.4974052392
H          8.3460267876        12.4008640229         7.3184437943
O          9.6995933175        14.0910611480         6.2078686279
H         10.2088973457        14.6661889016         5.6026606722
O          8.3842134667        14.0115751068         4.2688544232
C          7.1732477046        14.0925540992         1.3799346623
H          7.2179667182        14.6668148795         0.4467810276
H          6.8780877016        14.7095649874         2.2094564495
H          8.1028264021        13.6740977233         1.6650170885
C          2.0274649214        10.0891356989         4.1148287909
H          2.2601874350         9.0643762102         3.9521588326
H          2.1555896272        10.3295716814         5.1345907465
H          1.0107965366        10.3268541774         3.9484348845
          28
ANG Step:        473 Time:     9777.0974777350
C          4.4832604830        12.0539604393         2.3067688207
C          4.0118001292        11.4213744145         3.4255048147
C          4.7831962146        11.2248558628         4.6013967386
C          6.1083889189        11.6674271825         4.6217433463
C          6.6629877908        12.1384552532         3.4366726053
C          5.8450465637        12.4480268179         2.3267324753
H          4.3246653401        10.8031316564         5.5127858318
H          7.7245540389        12.2211640039         3.4503359072
O          3.6659342276        12.1595095949         1.1451127900
H          4.1736671547        12.6989867567         0.5425834856
O          6.1481819628        13.1401134059         1.1882169758
O          2.7368360749        10.9341712255         3.1891212762
C          6.9463778963        11.5919765788         5.8208654955
C          7.8958903239        12.5114618918         6.2342201499
H          6.6013254872        10.8101354129         6.5096197782
C          8.5893298702        13.5834733011         5.5027428448
H          8.2866281980        12.4227110116         7.1852229910
O          9.7005388060        14.0965128080         6.1918037926
H         10.1676625972        14.6512964375         5.5490544523
O          8.3866152426        14.0127434720         4.2887516538
C          7.1804601776        14.1147259794         1.3533649335
H          7.2570237721        14.6517383728         0.4273057651
H          6.9499542388        14.7658693944         2.2568076933
H          8.1329091636        13.5909256848         1.6835778318
C          2.0280368329        10.0847238544         4.1318975104
H          2.3023289222         9.0091150961         3.9113668321
H          2.2156055017        10.2175021033         5.2598218240
H          0.9205611868        10.2484856074         3.8876157217
          28
ANG Step:        485 Time:    10025.1422340412
C          4.5003805593        12.0448942852         2.2941653655
C          3.9680834546        11.3907439541         3.4291211421
C          4.8076933321        11.2451056097         4.6064357216
C          6.1090555084        11.6512512962         4.6376947232
C          6.6646959888        12.1758561668         3.4411803159
C          5.8113570207        12.4366287701         2.2836157717
H          4.4207303799        10.6321122759         5.3878078012
H          7.7245903985        12.4779804508         3.5304867285
O          3.6520112942        12.1884789144         1.2030945820
H          4.2184680580        12.5600063104         0.4880964754
O          6.1955809458        13.1143601898         1.1962261841
O          2.7157877767        10.9321411610         3.2096332186
C          6.9400744736        11.6037501494         5.8843017695
C          7.9126514007        12.5110087356         6.1973167852
H          6.5372523969        10.9165251108         6.5953010048
C          8.5525642890        13.5659019949         5.4901507365
H          8.3257294234        12.3603024560         7.2832385772
O          9.6871673826        14.0961856923         6.1656629076
H         10.0661622989        14.6472143166         5.4739257802
O          8.3913981780        14.0040418734         4.3460932476
C          7.2105227750        14.1367389707         1.3494435380
H          7.3301327546        14.6496274144         0.3883183425
H          7.0246758250        14.8377622873         2.1372190610
H          8.1108226962        13.6111859993         1.5254992476
C          2.0269078990        10.0653406027         4.1515458687
H          2.3157025381         9.0850775341         3.8576361463
H          2.2912910775        10.2151389873         5.1494198110
H          1.0109255023        10.1257763608         3.8931275447
          28
ANG Step:        496 Time:    10252.5165939885
C          4.4863451415        12.0274631992         2.2659899511
C          3.9330069166        11.3555950934         3.4195364647
C          4.7991860992        11.2395653812         4.6035094535
C          6.1312336013        11.6494666017         4.6525311480
C          6.6484775263        12.2157644903         3.4274079349
C          5.8038288573        12.4342309979         2.2861590164
H          4.4714685796        10.5290811430         5.3917754777
H          7.6146246390        12.6773171213         3.3845142616
O          3.6547435552        12.2189660630         1.2618430717
H          4.2041462687        12.4351986976         0.4748144599
O          6.2416140118        13.1025431741         1.1895550994
O          2.7036429473        10.9346257061         3.2494320726
C          6.9010836405        11.6067184378         5.9150720394
C          7.9497614354        12.5129141812         6.2068788635
H          6.5581173465        11.0131821139         6.7942074864
C          8.5517319268        13.5457827841         5.5079747220
H          8.3359919499        12.3712896834         7.1305541520
O          9.6612559443        14.0865586563         6.1422924754
H          9.9875801943        14.6886270233         5.4262961773
O          8.3837114701        14.0059972669         4.3752687665
C          7.2489727264        14.1402191734         1.3345191671
H          7.2870819154        14.6273923648         0.3441996284
H          7.0088081594        14.9031047641         2.1146189974
H          8.2690359353        13.6633647654         1.4618875331
C          2.0479382929        10.0392734174         4.1384341524
H          2.3860524510         8.9997193295         3.8484317121
H          2.3200640454        10.3359840499         5.2137911363
H          0.9268913227        10.1447000455         3.9763038370
          28
ANG Step:        649 Time:    13415.0872368922
C          4.4541194746        12.1231516775         2.3942964664
C          3.9840756535        11.3950391630         3.4906419243
C          4.7770497714        11.3137631742         4.6560689847
C          6.1579111385        11.6514159652         4.6778487656
C          6.7014798573        12.2141763264         3.4733706778
C          5.8023039584        12.4844383890         2.3943333344
H          4.4031731650        10.8256983150         5.5202988768
H          7.7760203025        12.4026821346         3.3768090518
O          3.6568398066        12.4437636769         1.3129138199
H          4.2421786691        12.8829187307         0.6801286866
O          6.2128365346        13.0068562550         1.1631009295
O          2.7781531981        10.8448718101         3.3823872061
C          6.8660366428        11.6334277151         5.9688631336
C          7.8751164875        12.4558047745         6.3435388966
H          6.4612510200        10.9288633538         6.7582199437
C          8.4567347674        13.5461566369         5.6209725503
H          8.3848172134        12.2739630599         7.2176959303
O          9.6976228599        13.9428602994         6.0081816282
H          9.8761185110        14.6932713754         5.4355760475
O          7.8846812551        14.1900062100         4.7158723207
C          7.3971624173        13.7650469798         1.2547698610
H          7.4636585052        14.4080264615         0.2554660030
H          7.3971543551        14.3973871775         2.1052221757
H          8.2795129667        13.0879508368         1.3247493660
C          2.4162928236         9.9483250399         4.4185149169
H          3.2933316938         9.1776679394         4.5996636562
H          2.2049195030        10.5052818787         5.4560894876
H          1.5289129574         9.3962185433         4.0607766249
          28
ANG Step:        661 Time:    13663.1319931984
C          4.4661307287        12.1163621792         2.3847777669
C          4.0157343521        11.3870836940         3.4883578971
C          4.7779646305        11.3882943007         4.6358064682
C          6.1246606974        11.6664679595         4.6462419467
C          6.6737440924        12.1684325250         3.5108319912
C          5.8063085972        12.4946344260         2.4263496309
H          4.3796074811        10.8795628101         5.5320939458
H          7.7008370345        12.3913350213         3.3983947338
O          3.6657503079        12.4421628994         1.3590425825
H          4.2180407606        12.8656310794         0.6682135869
O          6.2070894883        13.0121806671         1.1796376550
O          2.7886492930        10.8276512844         3.3986455175
C          6.8826411478        11.5807772492         5.9333626083
C          7.8614413300        12.4633218093         6.3753092131
H          6.4853803618        10.9299093280         6.6554157835
C          8.4170622760        13.5753467697         5.6325004431
H          8.3930451790        12.2017038377         7.3520105026
O          9.7563035224        13.9311411498         6.0033192859
H          9.8838781687        14.7259641468         5.4462892518
O          7.8275287038        14.2082171258         4.7187873111
C          7.4233283591        13.7781257450         1.2179662292
H          7.4764709642        14.3094200940         0.3618002248
H          7.4393174731        14.4473927810         2.1188987765
H          8.2605822429        13.1018169584         1.2610033379
C          2.4057999821         9.9367866143         4.4503601042
H          3.1508969810         9.2477559007         4.6043349157
H          2.2186564742        10.4313661137         5.3149501618
H          1.5436439457         9.4101584396         4.0770162476
          28
ANG Step:        671 Time:    13869.8359567869
C          4.4708768838        12.1110251560         2.3750859835
C          4.0169371221        11.3851811005         3.4835365905
C          4.7656908864        11.4148127678         4.6373095539
C          6.1155717194        11.7000445903         4.6611886911
C          6.6527724581        12.1467299940         3.4975036561
C          5.8351048602        12.5016825687         2.4161279828
H          4.3225985652        11.0576117754         5.5277023123
H          7.7227838714        12.3657309542         3.4625290197
O          3.6675162234        12.4362522577         1.3944667016
H          4.1970360344        12.8503823006         0.6885612605
O          6.1995312408        13.0151626162         1.2246863785
O          2.7938365297        10.8146255619         3.4115341180
C          6.8978595290        11.5404357189         5.8984363561
C          7.8725840850        12.4683202528         6.4001540630
H          6.4683400700        10.7742738983         6.6198371180
C          8.3834342790        13.6019419477         5.6493846970
H          8.2799956857        12.1924142002         7.3147298131
O          9.7833100532        13.9190907821         5.9930530914
H          9.9491429674        14.7449414830         5.5040053561
O          7.7909434173        14.2237128155         4.7253631640
C          7.4506410839        13.7847556711         1.2067738459
H          7.4549848073        14.3965025658         0.1625658008
H          7.4709886949        14.4306279639         2.0512229419
H          8.3205407888        13.0833064303         1.2095520221
C          2.3927680728         9.9239493866         4.4524042223
H          3.2175778240         9.1146698130         4.6741809502
H          2.0926004167        10.5353630137         5.4467036124
H          1.4445975971         9.4608521588         4.1164163918
          28
ANG Step:        682 Time:    14097.2103167342
C          4.5122562452        12.1112052056         2.3834378696
C          3.9859094597        11.3894373935         3.4745146695
C          4.7658616717        11.4191640586         4.6808360039
C          6.0828965741        11.7248518499         4.7220262743
C          6.6646398132        12.1575824014         3.4271781575
C          5.8422469986        12.4860421560         2.3997703018
H          4.2239169314        11.1967046415         5.6247288094
H          7.7167531817        12.2994409732         3.4633386829
O          3.6523469611        12.4304563830         1.4081717732
H          4.1930437735        12.8441571241         0.7228612420
O          6.2156622208        13.0380822461         1.2617412832
O          2.8052336919        10.8009244307         3.4232889889
C          6.9264481765        11.5162167780         5.8921237882
C          7.8601068941        12.4556733277         6.3862912406
H          6.5823802081        10.7211324562         6.4818315215
C          8.3666968154        13.6317153873         5.6778069461
H          8.3175826911        12.2028854415         7.4020821109
O          9.7762361136        13.9019345624         5.9748973862
H         10.0056308846        14.7483762101         5.5689057693
O          7.7632584357        14.2334791799         4.7428579958
C          7.4709502916        13.7877467355         1.1611246490
H          7.4042182646        14.2921278968         0.3029681079
H          7.5483642561        14.4849936433         2.0432622642
H          8.3197973711        13.1291124212         1.1598670484
C          2.3699793308         9.9121273224         4.4842753696
H          3.0616485533         9.1933659287         4.7041644820
H          2.1304531079        10.4525961743         5.2987842268
H          1.4396090639         9.5096576028         4.1258544147
          28
ANG Step:        692 Time:    14303.9142803227
C          4.5215277607        12.1006711696         2.4024741397
C          3.9757500915        11.4044555599         3.4944446015
C          4.7456082400        11.4088270142         4.7450254359
C          6.0673330689        11.7478794443         4.7407884747
C          6.6825878778        12.1605581723         3.4096614283
C          5.8453001512        12.4649473909         2.3838463364
H          4.2144820500        11.2631813298         5.6499331914
H          7.7707017998        12.2729191755         3.3396377420
O          3.6379596618        12.4258411688         1.4051549714
H          4.1780591637        12.8709909516         0.7014889871
O          6.2486735482        13.0794894480         1.2620273702
O          2.8104134585        10.7855114601         3.4259776914
C          6.9634590505        11.5271331241         5.9020128079
C          7.8525838425        12.4347326215         6.3730537126
H          6.7216861559        10.5979595500         6.5062397722
C          8.3627113523        13.6538361674         5.6997961019
H          8.3514587221        12.2643295234         7.2690387645
O          9.7407876911        13.8799158685         5.9589440622
H          9.9780248837        14.7588951189         5.5913877890
O          7.7498021751        14.2365447435         4.7699424087
C          7.4731574079        13.7793644388         1.1602770450
H          7.3432649633        14.3775043284         0.1190679803
H          7.6294348822        14.4654917443         1.9592879284
H          8.3599493394        13.0996172475         1.1089657330
C          2.3352522495         9.9172020834         4.4884388661
H          3.1142167650         9.0796535536         4.7513028110
H          2.1416202931        10.5670993440         5.4723252088
H          1.4207722893         9.4689422896         4.0646002692
          28
ANG Step:        703 Time:    14531.2886402700
C          4.4810669949        12.0888682934         2.4029252743
C          3.9885132618        11.4185926542         3.5723792981
C          4.7160500859        11.4061797881         4.7923922035
C          6.0839327326        11.7628301563         4.7247509285
C          6.6966866177        12.1490892851         3.4470175249
C          5.8694276467        12.4515033356         2.3659935592
H          4.2219979189        11.1968779671         5.7627314665
H          7.7385674768        12.2628079078         3.2394938348
O          3.6358182800        12.4182474124         1.3985089473
H          4.1221647687        12.8803513372         0.7166688637
O          6.2732778161        13.1261230057         1.2399215929
O          2.8097450363        10.7669802062         3.4214400201
C          6.9731083874        11.5269626176         5.9193596026
C          7.8819584848        12.4538106193         6.3490353059
H          6.9096348180        10.6410745021         6.4697967617
C          8.3461030979        13.6471247938         5.7193462404
H          8.5010305248        12.1903788523         7.2712848292
O          9.6889362527        13.8575785741         5.9462035153
H          9.8608028030        14.7361369555         5.5949036159
O          7.7409046552        14.2443550427         4.7994078559