          28
ANG Step:         12 Time:      248.0447563062
C          4.4832997995        11.6802462170         2.0750727469
C          4.0402476673        10.8730004213         3.2014768355
C          4.8133542377        10.9100464648         4.3440467957
C          5.9005409918        11.7964728430         4.4404512731
C          6.2174097606        12.6518173937         3.3583136386
C          5.6122487680        12.5496630569         2.1364777640
H          4.4692542571        10.2874361808         5.1597497058
H          7.1284070362        13.2199225683         3.5188269834
O          3.7796958376        11.6528940514         0.9414491110
H          4.2148017049        12.2407050038         0.2972237088
O          5.9115899908        13.2162302210         0.9914109145
O          2.9755615855        10.0615843564         3.1244053260
C          6.7350067599        11.6704535406         5.7079814510
C          7.8716589781        12.3345384405         6.2145888371
H          6.2474028761        10.9339235399         6.3595532947
C          8.7012586460        13.3912319479         5.7980731770
H          8.0957589845        11.9490237653         7.2062585602
O          9.6469246856        13.7490998602         6.7240413257
H          9.9995862121        14.5702695976         6.3329182868
O          8.6995047522        14.1367608784         4.7952958599
C          7.1353160489        13.9612194888         0.7159015429
H          6.8688146375        14.5476296575        -0.1770460207
H          7.3917715160        14.6915646550         1.4993369782
H          8.0131182183        13.3294859071         0.5502308885
C          1.8004408467        10.5660976924         3.8297811222
H          2.0618716831        11.1667337882         4.7211452777
H          1.2461450211        11.2880719343         3.2009687361
H          1.1663291270         9.7367419340         4.1473455232
          28
ANG Step:         47 Time:      971.5086288658
C          4.4954562915        11.7121207361         2.0918698335
C          4.1002930079        10.8927005337         3.1471438070
C          4.8451811053        11.0208604839         4.3977454564
C          5.9960507363        11.8253906622         4.4833392603
C          6.4138212018        12.6768531129         3.4072500628
C          5.6402959931        12.5296121265         2.2023856336
H          4.5482610145        10.3434937328         5.1986611182
H          7.2124701225        13.4239246465         3.5108956076
O          3.6557518199        11.6866484187         0.9366133835
H          4.0761765284        12.3109153503         0.3085218473
O          5.8575440233        13.1722574957         0.9585214729
O          2.9688173303        10.0923074001         3.0563473201
C          6.7392049228        11.6891788260         5.7338995716
C          7.8480388964        12.3330814575         6.2271749628
H          6.3039616606        10.9335848415         6.3601677219
C          8.7118206897        13.4633599583         5.7763273134
H          8.1731414629        11.9244113364         7.1841248968
O          9.6761704316        13.7101030832         6.8160982585
H         10.2871294297        14.3938116031         6.4947856158
O          8.6105245637        14.1026220570         4.7031874509
C          7.0267083177        13.9302828547         0.7229061049
H          6.8617700356        14.6082984609        -0.1024180255
H          7.3110783277        14.5361244645         1.5787006973
H          7.8970986433        13.2782224430         0.4979426190
C          1.8628899157        10.5746635624         3.8242600387
H          2.1770194520        11.0546997467         4.7455052040
H          1.2894445134        11.2926859837         3.2385938696
H          1.2281919355         9.7185322527         4.0364892625
          28
ANG Step:         69 Time:     1426.2573487605
C          4.4600493787        11.6881585144         2.0425941940
C          4.1213837012        10.9614770049         3.1458841300
C          4.8710611836        11.1024483793         4.3440371417
C          6.0479805234        11.8300395976         4.5199649730
C          6.4068105064        12.6065700878         3.3673453667
C          5.6180312221        12.5109544738         2.1714097513
H          4.6042510206        10.4440883697         5.1700793269
H          7.3266650739        13.1935393066         3.5051720398
O          3.6490271874        11.7228403362         0.9873749997
H          4.0212165802        12.2868498607         0.3005248592
O          5.7964997865        13.1300425569         1.0200421335
O          3.0512611350        10.1861745719         3.0187433686
C          6.7680961049        11.7344006336         5.7732353624
C          7.9098185096        12.3818269477         6.2468162499
H          6.4728007597        10.8988566450         6.3842078575
C          8.6711056685        13.4611815600         5.8122461053
H          8.2036845482        12.0656415002         7.2493483525
O          9.6242472554        13.6832673662         6.7487132453
H         10.2504242103        14.3590300978         6.4224496589
O          8.6041600313        14.0606551139         4.7329361076
C          7.0099360885        13.9176934747         0.7569668587
H          6.7163541518        14.5393180658        -0.0778455626
H          7.1901306863        14.5052783475         1.6457561054
H          7.8712493073        13.2697288951         0.5006907549
C          1.8868236989        10.5677011580         3.8308635459
H          2.2108009676        10.9522813498         4.7936911728
H          1.3727474621        11.3332182201         3.2577097146
H          1.2781731143         9.6785562280         3.9668175751
          28
ANG Step:        309 Time:     6387.1524748840
C          4.5108673833        11.8286424707         2.0948923388
C          3.9591024404        11.0846410966         3.2413784283
C          4.7567212657        10.9512045075         4.4929767607
C          5.9659699625        11.6203486367         4.5838797745
C          6.3853109518        12.3924792804         3.5115901038
C          5.7011376701        12.4616864614         2.2626771707
H          4.3024107850        10.4624938992         5.3520439605
H          7.3597598619        12.8742309847         3.4925379429
O          3.7952917308        12.0049247245         0.9272820758
H          4.2886543220        12.6396335693         0.3721351233
O          6.2274369648        13.2148416101         1.2630646319
O          2.7044085903        10.7623857193         3.0800136948
C          6.7070786118        11.6636149709         5.8078949971
C          7.9172777268        12.4085830471         5.9887004788
H          6.5064032153        10.8708295347         6.5199416072
C          8.6174024991        13.5116264472         5.4144309101
H          8.4140090710        12.3025733106         6.9888968662
O          9.5847096761        14.0147725414         6.2611232163
H          9.9094654548        14.7724095046         5.7346395519
O          8.5094455345        14.0489457462         4.2648596937
C          7.3390503063        14.1908123884         1.5468191731
H          7.3755941877        14.7289250933         0.5897883111
H          7.1537841332        14.8267618026         2.4247439963
H          8.2264320946        13.6031213425         1.7119168463
C          2.1219708883        10.2332531881         4.2655611455
H          2.6153907503         9.2860342883         4.4920090576
H          2.2600059973        10.9280179412         5.1101818313
H          1.0566779744        10.1098279483         4.0899076492
          28
ANG Step:        330 Time:     6821.2307984198
C          4.4834819067        11.8383680630         2.1148156123
C          3.9964952833        11.1502765257         3.1839281421
C          4.7148915775        10.9636882893         4.4012319355
C          5.9274583203        11.6423604263         4.5740812669
C          6.4283082353        12.3597340152         3.4515816197
C          5.7731253392        12.4472541537         2.2860977880
H          4.2740252334        10.4891551895         5.2761818882
H          7.3941166536        12.8456061430         3.5986475516
O          3.8009904972        11.9869428601         0.9520284566
H          4.3060922252        12.6782182013         0.4648701568
O          6.2719080511        13.2399668324         1.3387889194
O          2.6575783661        10.8094397924         3.1456223933
C          6.7778504341        11.6834964206         5.8071489963
C          7.9248140893        12.3979135725         6.0452841733
H          6.5410024559        10.9317263683         6.5506493411
C          8.5858582649        13.4959810454         5.3685659264
H          8.3499520671        12.1027594420         7.0355055575
O          9.6065085228        14.0651347845         6.2362650797
H         10.0143636743        14.7497120709         5.6803203415
O          8.5056601003        14.0568154788         4.2406100320
C          7.3568042718        14.2195479171         1.5469254183
H          7.4335593321        14.7838693074         0.6066605221
H          7.2027636999        14.9030345104         2.3927690396
H          8.2875854443        13.6982192620         1.7006632724
C          2.0382976673        10.1380005684         4.3155604320
H          2.3302073713         9.0889474130         4.3442282192
H          2.2393657111        10.6216009462         5.2702338878
H          0.9766781319        10.1598931260         4.0699780759
          28
ANG Step:        545 Time:    11265.3660155721
C          4.4866116585        12.0075736018         2.2481546066
C          4.0174200094        11.2515301792         3.4052144415
C          4.8220086772        11.0671279169         4.5879247976
C          6.0438343543        11.7599665497         4.6848083497
C          6.6020423913        12.2886706531         3.5139446410
C          5.8307222362        12.5439329455         2.3294213197
H          4.3755529264        10.7281618611         5.5166904853
H          7.6935949085        12.2002906807         3.3968829146
O          3.5759599723        12.3352954942         1.2831853285
H          4.0824555552        12.6122630610         0.5253300308
O          6.3621358411        13.0018224828         1.1739020964
O          2.7210884921        10.9680845028         3.3786975479
C          6.7791512875        11.7658639485         5.8955411427
C          7.9875198014        12.4294889088         6.2429813959
H          6.4660129719        11.0277730478         6.6523447486
C          8.5863973254        13.4786571902         5.4904158000
H          8.4666653693        12.1611778397         7.2247404182
O          9.6874733669        14.0751723037         6.1792678715
H          9.8610771947        14.8946651986         5.6861117286
O          8.2117204455        14.0344345415         4.4101413313
C          7.3225587384        14.1009919689         1.2716638451
H          7.3220463989        14.6128256081         0.2478547309
H          7.1522608009        14.7830200829         2.0662846775
H          8.2670404944        13.6003140530         1.3788180843
C          2.1203468202         9.9502791308         4.2664470817
H          2.6633351081         9.0397696562         3.9674856424
H          2.2171066926        10.1973336564         5.3248075204
H          1.0765069268         9.9067191289         4.0395839111
          28
ANG Step:        555 Time:    11472.0699791605
C          4.4911467584        12.0332890247         2.2596522098
C          4.0363001316        11.2662647565         3.3746351291
C          4.8055345694        11.0744875029         4.5814881884
C          6.0233166737        11.7874844387         4.7073172265
C          6.6135252395        12.2751219578         3.4851160129
C          5.8320756170        12.5330761522         2.3734484074
H          4.4771911589        10.5261627326         5.4767321679
H          7.6564415514        12.1907296347         3.3103031357
O          3.5797335436        12.3397462636         1.2870833001
H          4.0453666639        12.7547140984         0.5162331804
O          6.3628749799        12.9975128268         1.1630060857
O          2.7283372443        10.9619603374         3.4210711313
C          6.7733979403        11.7872754979         5.9177520073
C          7.9598014454        12.4272012266         6.1870786395
H          6.5656020224        11.0644028462         6.6827603402
C          8.6062006731        13.5008964191         5.5257533755
H          8.4813178533        12.1854143941         7.1124563929
O          9.6850000385        14.0573865669         6.1792920225
H          9.8394035155        14.8860926153         5.6985443749
O          8.1676656649        14.0184447871         4.4423199418
C          7.3300617935        14.0619583215         1.2566746194
H          7.2348247521        14.5203815052         0.3254616913
H          7.1632599939        14.7648109391         2.1197095088
H          8.3377017111        13.6231284970         1.4298447323
C          2.1613615966         9.9409097964         4.2646638899
H          2.7018887986         9.0063269339         4.1454869449
H          2.2247926757        10.2302228620         5.3236735464
H          1.0726609934         9.9079348790         4.0470771131
          28
ANG Step:        565 Time:    11678.7739427490
C          4.5038490127        12.0635685071         2.2936441845
C          4.0495048154        11.2849136578         3.3689941664
C          4.8148654764        11.1052616087         4.5677027551
C          5.9976958268        11.7936448578         4.7217809962
C          6.6199002935        12.2568041695         3.4599947110
C          5.8110023708        12.5113581472         2.3746551488
H          4.5116263248        10.3614000052         5.3063860476
H          7.7060966014        12.2208031792         3.2829535599
O          3.5908047415        12.3432000365         1.2863487132
H          4.0248429026        12.8724713299         0.6060903987
O          6.3519252753        12.9936105975         1.1716567184
O          2.7249953998        10.9513006050         3.4490971031
C          6.7749320093        11.7993053631         5.9485398017
C          7.9565099100        12.4404379638         6.1426442537
H          6.5140921572        11.0395959308         6.7170702966
C          8.5993417176        13.5253823367         5.5487176191
H          8.4893105502        12.1409224576         7.0536510742
O          9.6786128162        14.0376462552         6.1718947226
H          9.8649657678        14.8828580792         5.7048974826
O          8.1327137462        14.0069616410         4.4813048683
C          7.3440612174        14.0130565720         1.2609303209
H          7.2223572317        14.5706544157         0.2597615979
H          7.1153891185        14.6688498245         2.0741151366
H          8.3802364883        13.6830524214         1.4189190357
C          2.2076608219         9.9459506660         4.2722546825
H          2.6925822527         8.9239370342         4.2659096031
H          2.2731027147        10.2797016769         5.3447759649
H          1.1692371060         9.8595431147         3.9677116725
          28
ANG Step:        578 Time:    11947.4890954140
C          4.4737296521        12.1011882686         2.3282805911
C          4.0345737624        11.3074645404         3.4032706936
C          4.8374655665        11.1372801455         4.5374406511
C          6.0173213726        11.7976294734         4.7243086987
C          6.6153081316        12.2258211169         3.4671431476
C          5.8090998354        12.4904694324         2.3214476641
H          4.4951514167        10.2892892418         5.1483198753
H          7.6772154103        12.2714238746         3.3787883101
O          3.6187096130        12.3464509283         1.2926869639
H          4.0663950674        12.9945776119         0.7529864254
O          6.3240234940        12.9759074237         1.1958448835
O          2.7410977488        10.9435774861         3.4424862671
C          6.7523129049        11.7918662001         5.9674240194
C          7.9945589822        12.4391190093         6.1612088268
H          6.3898895784        11.0663063681         6.7021492303
C          8.5456778206        13.5444139925         5.5483917020
H          8.4854462637        12.0733796852         7.0101351283
O          9.6814932103        14.0216701329         6.1608810955
H          9.9325143223        14.8302876829         5.7125330111
O          8.0955927717        14.0232483072         4.5149478405
C          7.3503581166        13.9751639280         1.2512405924
H          7.3348451893        14.5511586235         0.3620117451
H          7.0631086389        14.6499238129         2.0938091091
H          8.4036864190        13.6054108145         1.3527531899
C          2.2640102190         9.9448339437         4.3173270516
H          2.7629983912         8.9685102593         4.2370763363
H          2.2330767329        10.3322033246         5.3610260498
H          1.2423202145         9.7570514671         3.9047442604
          28
ANG Step:        588 Time:    12154.1930590025
C          4.4337557910        12.1223870248         2.3455928246
C          4.0115052872        11.3422934766         3.4291681784
C          4.8469801961        11.1313083676         4.5213953177
C          6.0684225011        11.8035563031         4.7131529555
C          6.5923156338        12.2094969728         3.4851008928
C          5.8225510190        12.4619782003         2.3089025908
H          4.5256736290        10.3835391946         5.2251829355
H          7.6850511261        12.3006169876         3.4549546543
O          3.6416186437        12.3517098928         1.2961687617
H          4.0933992140        13.0946970880         0.8076952829
O          6.3042019610        12.9647234603         1.1905594618
O          2.7614356626        10.9386278446         3.4149470245
C          6.7436196618        11.7885435819         5.9631920377
C          8.0006092582        12.3973571715         6.2198294288
H          6.3445921489        11.1060133956         6.7210091973
C          8.5094201659        13.5461971733         5.5539589440
H          8.6004145636        12.0330517948         7.1161629705
O          9.6868457842        14.0112475036         6.1527137777
H          9.9840226135        14.8097451926         5.6621594969
O          8.0628157246        14.0685241412         4.5114729346
C          7.3518570816        13.9607428028         1.2656203153
H          7.3467419401        14.5431013068         0.2800918532
H          7.1807025700        14.6169493980         2.0943402991
H          8.3058813136        13.4530620526         1.3726255144
C          2.2849100992         9.9401192774         4.3501319435
H          2.9524128129         9.0444229153         4.2192336515
H          2.1833013649        10.3138243584         5.3847639613
H          1.2985702597         9.7086266533         3.9957742704
          28
ANG Step:        598 Time:    12360.8970225910
C          4.4326192123        12.1417321159         2.3614951770
C          3.9956265720        11.3906977818         3.4465913480
C          4.8701942715        11.1183290644         4.5315504187
C          6.0935472476        11.7904473319         4.7000623351
C          6.5924189789        12.2122765685         3.4855560121
C          5.8103035970        12.4163154107         2.3391288582
H          4.5502133481        10.5322827452         5.4090346648
H          7.6470420182        12.3258631163         3.4466799873
O          3.6556327761        12.3687348169         1.2850358971
H          4.0461129388        13.1047877186         0.8296866091
O          6.2865911873        12.9656102635         1.1654456199
O          2.7594871603        10.9252442793         3.3876325707
C          6.7622502624        11.7845573962         5.9675950198
C          7.9953298941        12.3499543820         6.2907851656
H          6.3152575586        11.1564556783         6.7242598474
C          8.4870422954        13.5347332108         5.5674581811
H          8.6102187532        12.0714390790         7.1321126638
O          9.6869516206        14.0023543157         6.1387943561
H          9.9852216240        14.7445221585         5.5915753742
O          8.0307830239        14.1245844346         4.5069511859
C          7.3545680896        13.9460363262         1.2673442459
H          7.3280226864        14.4153980316         0.3384249616
H          7.3080124302        14.6243417119         2.1575384582
H          8.2447164416        13.3121152142         1.4094897433
C          2.3126086901         9.9341711027         4.3680801038
H          3.0636408609         9.1819274597         4.3272607168
H          2.2265796765        10.2936571275         5.3891671544
H          1.2985655876         9.6217406773         4.0584814427
          28
ANG Step:        610 Time:    12608.9417788972
C          4.4597132615        12.1618590173         2.3658796449
C          3.9838507492        11.4315382519         3.4791922434
C          4.8965387888        11.1147070950         4.5822233146
C          6.0897922041        11.7481006188         4.6975770966
C          6.6300326884        12.2360175183         3.4622771699
C          5.7906625478        12.3859194981         2.3629560527
H          4.5019270081        10.7319747685         5.4977499975
H          7.6983935448        12.3796193382         3.3242045488
O          3.6574491999        12.3906715622         1.2694172294
H          4.0446507078        13.1401007057         0.7632157928
O          6.2514213698        12.9713714289         1.1533036683
O          2.7315839662        10.9017643321         3.3669550309
C          6.7960794708        11.7629504031         5.9899968242
C          7.9853874039        12.3510660296         6.3252118473
H          6.2796827779        11.1538662074         6.7257741735
C          8.4688341666        13.5170012243         5.5747797661
H          8.5890303744        12.0854516163         7.2730536823
O          9.6725868348        13.9872082932         6.1111451724
H          9.9476927061        14.6714561034         5.4919176366
O          8.0046047208        14.1717464655         4.5409935429
C          7.3669638086        13.8909948656         1.2889421626
H          7.3778699835        14.4171164459         0.2815767445
H          7.3281956341        14.5723710034         2.1228797986
H          8.2826404702        13.3170563542         1.3761482931
C          2.3510826161         9.9393053760         4.3759063695
H          3.1251229189         9.1302491430         4.4788034727
H          2.3195248739        10.4006061898         5.3798929989
H          1.4187276857         9.5056824006         4.0682236172
          28
ANG Step:        611 Time:    12629.6121752560
C          4.4603268337        12.1627965821         2.3654070602
C          3.9829030087        11.4332017654         3.4825158209
C          4.8966342029        11.1154158551         4.5869917472
C          6.0905798225        11.7444933942         4.6978675932
C          6.6349957215        12.2382496557         3.4601397096
C          5.7911810081        12.3861360269         2.3626097706
H          4.4925213072        10.7442107946         5.5011573422
H          7.6961832528        12.3833099135         3.3139268148
O          3.6576375006        12.3930094195         1.2682590166
H          4.0442728074        13.1326981095         0.7628722693
O          6.2479409254        12.9718018801         1.1539525186
O          2.7293080400        10.8997413696         3.3659917689
C          6.7974866986        11.7592188394         5.9927138774
C          7.9848076321        12.3547121905         6.3251359131
H          6.2839394269        11.1568880231         6.7193820071
C          8.4676768950        13.5159217271         5.5748796211
H          8.5873303055        12.0841280590         7.2903444519
O          9.6708221509        13.9858744788         6.1081332895
H          9.9430088474        14.6639469433         5.4862967383
O          8.0030205145        14.1740028756         4.5461102408
C          7.3686786377        13.8850915604         1.2883286752
H          7.3857015351        14.4126400281         0.2969977829
H          7.3211211679        14.5718377686         2.1240487684
H          8.2861685993        13.3248998953         1.3699350525
C          2.3559856740         9.9394192350         4.3778598573
H          3.1140918877         9.1346830812         4.4866399405
H          2.3233111782        10.4077220604         5.3599710020
H          1.4317002923         9.4981252045         4.0684484796
          28
ANG Step:        297 Time:     6139.1077185778
C          1.5132544549        13.4559356623         9.0520782630
C          2.9420608763        13.1824750480         8.8695031987
C          3.4947002632        11.8979347097         9.1066341711
C          2.7176420413        10.8240125317         9.4784519025
C          1.2926653916        11.1177760666         9.6187974689
C          0.7556615292        12.3503478911         9.4619045415
H          4.5683640043        11.7706428091         9.0927472554
H          0.6164720558        10.3996400473        10.0939935114
O          0.8596988952        14.7047948340         8.9942960786
H         -0.0836425771        14.4142249990         9.1122585172
O         -0.5746402057        12.5756989770         9.6062482930
O          3.7484849209        14.1910560813         8.4353791253
C          3.2724090968         9.5343220399         9.6950597470
C          2.7965038115         8.4422841238        10.3111856857
H          4.2785795212         9.4866421942         9.3481657228
C          1.6287922306         8.0579548143        10.9790536315
H          3.5653512513         7.6896812947        10.4158206389
O          1.5852686355         6.6880926094        11.2154725122
H          0.7211269158         6.4443053698        11.6335609627
O          0.6893763417         8.7255201139        11.3486881701
C         -1.2924728865        11.6308450505        10.4291886722
H         -1.5130727067        10.7347681071         9.8143973482
H         -0.7739340365        11.3425095856        11.3914185219
H         -2.2033977735        12.1695399187        10.6764469714
C          3.3919793442        15.5985449292         8.5738259897
H          3.0129508078        15.8882826027         9.5266181323
H          4.2521406681        16.1424537258         8.2703850373
H          2.5583297338        15.8174815143         7.8799900871
          28
ANG Step:        317 Time:     6552.5156457548
C          1.5355510475        13.4891297263         9.0596172637
C          2.9607304468        13.2157143493         8.8604641636
C          3.5224668904        11.8836903162         9.1653810383
C          2.6350565482        10.8354175558         9.4544905075
C          1.2992911793        11.0903373653         9.6266742157
C          0.7613680292        12.4252588139         9.4297700616
H          4.5875756248        11.7661137430         8.9983584561
H          0.7339203136        10.2189098986         9.9864621735
O          0.8936289921        14.6890881538         9.0097704970
H         -0.0373030478        14.5449695806         9.2938949566
O         -0.6036144385        12.5990571974         9.6117608344
O          3.7742994335        14.1749019118         8.4702364432
C          3.3300146455         9.5693608379         9.6402025754
C          2.8283503800         8.4694610011        10.3591476315
H          4.3198303625         9.4682855933         9.2747219934
C          1.5496728658         8.0490107277        10.9481141568
H          3.4591115791         7.5691739194        10.2419601840
O          1.6420404228         6.6569654247        11.1965576012
H          0.8773746847         6.4989822808        11.7905149068
O          0.6085394298         8.8213786188        11.3574430853
C         -1.2861908459        11.6199720624        10.4350361226
H         -1.5331992076        10.7029378687         9.8765869799
H         -0.6870849925        11.2786604464        11.3079469364
H         -2.2278931531        12.0896555163        10.6658457639
C          3.3470280514        15.6515283057         8.5150975964
H          3.1153839621        15.8904662547         9.5385110241
H          4.3047680586        16.0424420176         8.2850161021
H          2.5904973647        15.9403077107         7.7740352310
          28
ANG Step:        338 Time:     6986.5939692906
C          1.5273037011        13.4641771736         9.1016038081
C          2.8875378519        13.2888206800         8.8902815442
C          3.4583871272        11.9885003078         9.1389453099
C          2.7244880257        10.8901926673         9.4388758355
C          1.2730295050        11.1060232129         9.6181099294
C          0.7222912164        12.3236851158         9.4355534967
H          4.5167612615        11.8268694654         8.9889492809
H          0.6140957065        10.2530044157         9.7840882019
O          0.9613754325        14.7112925653         8.9999680000
H          0.1061079467        14.5872727618         9.4444722502
O         -0.5833309324        12.6370770731         9.6311118137
O          3.7875694338        14.2169037131         8.5122262362
C          3.3322875569         9.5166176582         9.6457808992
C          2.8508296593         8.4221208720        10.3378229537
H          4.2964040147         9.4897364341         9.2123785512
C          1.5445763536         8.1359561050        10.9383805394
H          3.5018622518         7.5336099353        10.2551901303
O          1.6388339403         6.6931033731        11.1963550677
H          1.0157317064         6.4645706101        11.8878787831
O          0.5598409762         8.8274348574        11.3402141644