          28
ANG Step:         31 Time:      640.7822871243
C          4.4661765812        11.7008636023         2.0554956270
C          4.0863051448        10.8790381587         3.1947559477
C          4.8095406895        10.9458739782         4.3773496156
C          5.9596977629        11.8124832110         4.4887553741
C          6.3365046685        12.6876732688         3.3855852008
C          5.6523626631        12.5656814263         2.1370246604
H          4.5717943487        10.3688442084         5.2633034105
H          7.1719640175        13.3702469850         3.5655584878
O          3.7156323506        11.6720003392         0.9477200683
H          4.1254674684        12.2922808751         0.3205260867
O          5.8992124645        13.1916601770         0.9653056904
O          2.9527692917        10.0602347966         3.0860602475
C          6.7248789733        11.6702834389         5.6938958192
C          7.8288299918        12.3089265759         6.2370455160
H          6.3249751011        10.9958619349         6.4396651238
C          8.7011442028        13.4238908734         5.7527797579
H          8.2385732140        11.9499532344         7.1863764792
O          9.6920835002        13.7343766763         6.8185513218
H         10.1706644054        14.4610589401         6.3715884516
O          8.6482574374        14.1323738802         4.7302260974
C          7.0700420574        13.9634297763         0.7287189427
H          6.8240550297        14.5051820824        -0.1839057604
H          7.3637459150        14.5815212710         1.5806642782
H          7.8243337790        13.2096252641         0.4614739080
C          1.8307367572        10.5776243685         3.8320784292
H          2.2008480125        11.0552665666         4.7427023416
H          1.2860484169        11.2530767873         3.1569858593
H          1.1948724022         9.7263530504         4.0918132196
          28
ANG Step:        110 Time:     2273.7435994733
C          4.4348093629        11.7133590198         2.0206044516
C          4.0973727009        11.0673752001         3.1868821439
C          4.9044882754        11.1100362517         4.4131667279
C          6.0710971175        11.8467971967         4.5327970523
C          6.4755735223        12.4667430949         3.2539216131
C          5.6453235111        12.4590166186         2.1512461874
H          4.5212350607        10.4993599616         5.2332413651
H          7.4199557302        13.0117811489         3.2847485340
O          3.5742288280        11.7769169725         0.9278278450
H          4.0142322100        12.2505486435         0.2094950428
O          5.8038536590        13.1958252772         1.0343639677
O          3.0738948955        10.2642930675         3.0642391079
C          6.7578901063        11.6905158506         5.7984624923
C          7.8463227828        12.3445692571         6.4109183166
H          6.1947746199        10.9759190745         6.3693093942
C          8.6804448519        13.4327570032         5.7989040146
H          8.1721178409        11.9200541352         7.3567905276
O          9.6961596112        13.7881909397         6.6565695057
H         10.1590613021        14.5163048173         6.2014598114
O          8.5960721621        14.0569658554         4.7227684717
C          6.9982718498        13.9407717672         0.8300490616
H          6.8289546204        14.5837770896        -0.0187199641
H          7.1536596281        14.5728654060         1.7132931102
H          7.9059012348        13.3306274401         0.6752989628
C          1.9351201064        10.5166109517         3.8462513912
H          2.1989586154        10.6844617042         4.8882132892
H          1.4710905431        11.4204485976         3.4514425980
H          1.2984888165         9.6408130916         3.7658413055
          28
ANG Step:        132 Time:     2728.4923193679
C          4.4399879240        11.7742366478         2.0187054255
C          4.1142895089        11.0605101421         3.2000507546
C          4.8401703689        11.1337512400         4.4177248745
C          6.0716449068        11.7913597179         4.4933492045
C          6.5575552338        12.4164974675         3.2994532272
C          5.6339121085        12.4732776418         2.0708817596
H          4.6264718761        10.4494703887         5.2340119113
H          7.5192247600        12.9402306609         3.3164536260
O          3.5729228207        11.7879040134         0.9270689381
H          4.0673371941        12.2850486918         0.2407030924
O          5.8286380069        13.2493965718         0.9946119857
O          3.0328240991        10.2259943223         3.0892685575
C          6.7420700139        11.6682368979         5.8204002916
C          7.8335154439        12.3809183683         6.3512567500
H          6.2813575702        11.0599520967         6.5742342909
C          8.7063932872        13.4065315931         5.8340379437
H          8.0959470062        12.1288252035         7.3855119677
O          9.7651350901        13.8624451338         6.6246923916
H         10.1681082377        14.6025453204         6.1494809925
O          8.5347561590        14.0031762081         4.7196319467
C          7.0811984879        14.0280513992         0.8732427741
H          6.9211413576        14.5926369290        -0.0329364275
H          7.1966757151        14.6765688672         1.7450839995
H          7.9254895601        13.3280155626         0.7723201308
C          1.8725588080        10.4829993720         3.9342728652
H          2.1176379345        10.5247324674         4.9915676494
H          1.4111371566        11.4227236611         3.6187860904
H          1.1593327322         9.6955899247         3.7201617693
          28
ANG Step:        153 Time:     3162.5706429037
C          4.4277468695        11.7910447146         2.0520070724
C          4.0517552309        11.0346099505         3.1588217169
C          4.8154010789        11.1291406736         4.3506209976
C          6.1015515823        11.7455025975         4.4872225867
C          6.5083354898        12.3729324274         3.3039325016
C          5.6807152166        12.5021045658         2.1022657482
H          4.3203092562        10.5758167544         5.1496460272
H          7.5190108186        12.7699894607         3.2970739499
O          3.6211625646        11.7989918155         0.9756190248
H          4.0183585864        12.3170522184         0.2455439711
O          5.9236052193        13.3138621438         0.9683043195
O          2.9688058661        10.2031078735         3.1337741771
C          6.7959984083        11.7289958955         5.8063599498
C          7.8696103907        12.4176578625         6.3343526850
H          6.2510961328        11.0640675148         6.4476255771
C          8.6887025057        13.4310082475         5.7950072226
H          8.0230976758        12.2284617217         7.3971724252
O          9.7903969832        13.8874035732         6.6053132246
H         10.0296729119        14.5902345080         5.9798781135
O          8.4896564444        13.9449713651         4.7115183703
C          7.1083772082        14.0861285285         0.9200007641
H          7.1240175748        14.6258138073        -0.0150044798
H          7.2841877074        14.7758171771         1.7465060767
H          7.9521021042        13.3757543423         0.8990755184
C          1.8358209791        10.4568420108         3.9932213939
H          2.1001134005        10.3270353606         5.0449369503
H          1.4151177366        11.4496627504         3.8609446633
H          1.1451434744         9.6600164278         3.7442584025
          28
ANG Step:        165 Time:     3410.6153992099
C          4.4322787383        11.7907419518         2.0731888410
C          4.0164477967        11.0379704056         3.1315426503
C          4.8180705478        11.1116367603         4.3216657453
C          6.0851861169        11.7243757680         4.4918406798
C          6.4912098882        12.3657414223         3.2748272099
C          5.6945373645        12.5301737267         2.1169769205
H          4.3360106947        10.7185066801         5.2191420761
H          7.4933081640        12.7718898709         3.2705650373
O          3.6423508847        11.8093895111         0.9877078938
H          3.9982294173        12.3436943415         0.2638976345
O          5.9617909580        13.3159027574         1.0165737927
O          2.9293167576        10.2091922661         3.1511430988
C          6.8143126142        11.7644447006         5.7594517706
C          7.8671633289        12.3990013273         6.3828552605
H          6.3203076320        11.0723830271         6.4601549761
C          8.7084516928        13.4627785683         5.7948551640
H          8.1008198229        12.2103688568         7.4124410825
O          9.7622475126        13.8884479521         6.5614573381
H         10.1386628000        14.6258726080         6.0342522257
O          8.4751466863        13.9370958252         4.6666862877
C          7.1658863272        14.1088875095         0.9392681743
H          7.1230427788        14.6347444742        -0.0230349498
H          7.1091183220        14.7541518105         1.8333906156
H          8.0481033620        13.4701502114         0.9721062000
C          1.8310754426        10.4295987561         4.0385901027
H          2.1821261460        10.2145916658         5.0614100618
H          1.4479586954        11.4458513000         3.8442441654
H          1.0615608429         9.7104540109         3.7078274743
          28
ANG Step:        172 Time:     3555.3081737218
C          4.4433625149        11.8012515074         2.0657220166
C          4.0066006652        11.0398871627         3.1420945817
C          4.8202662560        11.1015354630         4.3205509708
C          6.0698437944        11.7236480959         4.4753877391
C          6.4996672605        12.3658116132         3.2652874941
C          5.6824496319        12.5387385769         2.1204737449
H          4.3905075631        10.7554837038         5.2610734212
H          7.4897873619        12.8224376001         3.2634015434
O          3.6453136953        11.8153300209         0.9842426961
H          4.0385293771        12.3795913082         0.2908873537
O          5.9777691047        13.3014425648         1.0560907022
O          2.9109591820        10.2153544019         3.1480160149
C          6.8059252533        11.7647106740         5.7381867992
C          7.8895035861        12.4147381258         6.4046959717
H          6.3748110167        11.0867829355         6.4609635263
C          8.6987574310        13.4551329634         5.8061462448
H          8.1225943456        12.1374716789         7.4148835267
O          9.7438976400        13.8923533472         6.5308269438
H         10.2226504565        14.6221998281         6.1128357747
O          8.4722383462        13.9419645179         4.6311096996
C          7.1983024288        14.1220229062         0.9591602073
H          7.0966044118        14.6433052518         0.0244605005
H          7.0731116256        14.7686106050         1.8170010819
H          8.1180766327        13.5228079963         1.0280858594
C          1.8337311345        10.4131695977         4.0595645078
H          2.1498163487        10.2056576517         5.0818637510
H          1.4690436485        11.4271516889         3.9169508837
H          1.0330462965         9.7537578644         3.7256595438
          28
ANG Step:        194 Time:     4010.0568936165
C          4.4237455237        11.7905328231         2.0569929938
C          4.0257198121        11.0654371126         3.2094813374
C          4.8245493986        11.0845390418         4.3847514365
C          6.0747376803        11.7776304788         4.4020403710
C          6.5486916657        12.3869225349         3.2745483530
C          5.6410242323        12.5101299662         2.1801535619
H          4.4686777861        10.5251680953         5.2522517470
H          7.4815366757        12.9472334695         3.3523641206
O          3.6442300290        11.8529151331         0.9248157866
H          4.0905984584        12.4475208046         0.3078657079
O          6.0420237306        13.2565495044         1.1346993237
O          2.8878699903        10.2606882184         3.0996652823
C          6.8098648323        11.7451439112         5.7653936263
C          7.8861500445        12.4476995449         6.3490004200
H          6.3429375200        10.9753841342         6.3646289037
C          8.6309237637        13.4661119485         5.7036134043
H          8.2219161342        12.0512444894         7.2984364259
O          9.7137691856        13.8966268609         6.4947911630
H         10.1329909006        14.5709354143         5.9176249585
O          8.4830389930        13.9386782430         4.5899868569
C          7.2230652673        14.1511112897         1.0797581407
H          7.1260023158        14.5715350530         0.0908027298
H          7.2857862181        14.9495573867         1.8088559447
H          8.1589658786        13.5765983004         1.1353309971
C          1.8429632749        10.4007305192         4.1214374892
H          2.1313221662        10.0802920971         5.1317669859
H          1.5147679570        11.4291980254         4.2186640100
H          1.0447568009         9.7368837095         3.8023053707
          28
ANG Step:        218 Time:     4506.1464062288
C          4.4010574505        11.7918825924         2.0703968688
C          4.0057526848        11.0754418458         3.2228171581
C          4.8546593144        11.1019535769         4.3751621308
C          6.1087878077        11.7968521258         4.5487604262
C          6.5329778344        12.4326507260         3.3557808237
C          5.6915705824        12.4712038727         2.1965503362
H          4.6060025614        10.3883168675         5.1544719086
H          7.4860574602        12.9614473985         3.3152738526
O          3.6581017141        11.8899209148         0.8966928196
H          4.1719883728        12.4793016437         0.3178953978
O          6.0740243865        13.2417902560         1.1771453226
O          2.8745205023        10.3690526650         3.0881100536
C          6.7679965657        11.6736710602         5.7569749876
C          7.8370251121        12.4324507713         6.2067933417
H          6.4659171825        10.9052374898         6.4554975232
C          8.6092823397        13.4474976770         5.6745865729
H          8.2092173616        12.1978122373         7.2378557954
O          9.6641547558        13.9082590426         6.4359819404
H         10.1230470772        14.5294186686         5.8317229771
O          8.5015834186        13.9898214624         4.4832242807
C          7.2133784509        14.1172144741         1.1987470022
H          7.2349601969        14.6031221786         0.2209067312
H          7.0770502430        14.8099106180         2.0152012660
H          8.1030707998        13.4973092489         1.3689403706
C          1.9165177341        10.3834738352         4.1580382902
H          2.3625891667         9.9190957973         5.0316490878
H          1.5731902111        11.3926502589         4.3717505473
H          1.0726391393         9.8173428952         3.7906019052
          28
ANG Step:        227 Time:     4692.1799734585
C          4.4391715751        11.8247891572         2.0649423605
C          4.0068788759        11.0956823801         3.1952474055
C          4.8847314883        11.1065797445         4.3615365885
C          6.0559011227        11.7784752678         4.5704670197
C          6.5111807697        12.4469999312         3.4067095477
C          5.6978997675        12.4543101359         2.1966552728
H          4.6158021786        10.4163477918         5.1583288221
H          7.5007928180        12.8826895848         3.3382950547
O          3.6702902060        11.8977366535         0.9113495297
H          4.2247131260        12.4794162514         0.3566355100
O          6.0600175212        13.2322629181         1.1772482204
O          2.8591655298        10.4118243838         3.0931209851
C          6.7645177171        11.6378898167         5.7707480217
C          7.8541337076        12.4297815493         6.1947199625
H          6.4632175070        10.8960859363         6.5049537353
C          8.6034792822        13.4619043073         5.6142047913
H          8.0966835470        12.1682926733         7.2226024482
O          9.6363626453        13.9123299433         6.4032191879
H         10.1874739252        14.5365290182         5.9126581769
O          8.5150431988        14.0086769745         4.4620485928
C          7.2119659032        14.0806708194         1.2457037780
H          7.2624833086        14.6786244773         0.3244377996
H          7.0056259521        14.7757150237         2.0831140974
H          8.1458421453        13.5672429827         1.4813710701
C          1.9622493715        10.3685113995         4.1545770019
H          2.3445094189         9.9078801170         5.0895627215
H          1.6558392151        11.3858180339         4.4866421692
H          1.0745840475         9.8132572553         3.8190919513
          28
ANG Step:        237 Time:     4898.8839370469
C          4.4732075257        11.8469653936         2.0641513915
C          4.0353482166        11.1366320187         3.1572824550
C          4.8756053363        11.0830715508         4.3491068464
C          5.9976754735        11.7671130101         4.5574732533
C          6.4734947535        12.4518642749         3.4451989494
C          5.7086362580        12.4468425676         2.2194155626
H          4.5567606804        10.4365963801         5.1581192369
H          7.5088142571        12.7812070850         3.4459197926
O          3.6976565163        11.9109467544         0.9372531565
H          4.2001927724        12.4723363230         0.3142606828
O          6.0453088994        13.2170281797         1.1599892914
O          2.8509381008        10.4594220148         3.0892759527
C          6.7922000070        11.6141919191         5.8109629714
C          7.8593106276        12.4110885465         6.1929428644
H          6.3892944041        10.8900855222         6.5162430705
C          8.6088616376        13.4949706610         5.5256716136
H          8.1027414053        12.1881362748         7.2302969707
O          9.6075767112        13.9118234037         6.3806898359
H         10.1789390749        14.5477436694         5.9194275986
O          8.5272763527        14.0259402686         4.4430648561
C          7.2041484797        14.0599123071         1.3159247951
H          7.2817135940        14.6632626484         0.4239956319
H          7.0094946744        14.7437230567         2.1305867786
H          8.1704622734        13.5901462643         1.5383279286
C          1.9963843126        10.3573274034         4.1813772831
H          2.3680612135         9.8407197117         5.0674805332
H          1.7451451282        11.3531122449         4.5289800884
H          1.1174354106         9.8213811557         3.8442057691
          28
ANG Step:        247 Time:     5105.5879006354
C          4.4917467510        11.8533632455         2.0583483183
C          4.0577618002        11.1629049813         3.1439823423
C          4.8112747629        11.0344032496         4.3393720486
C          5.9819550231        11.7630779647         4.5649538595
C          6.4382060117        12.4451652772         3.4550953698
C          5.7263335987        12.4656783661         2.2422214049
H          4.4355504840        10.4019202814         5.1357737755
H          7.4643172779        12.7581375633         3.5449988962
O          3.7322261649        11.9293498040         0.9617043633
H          4.1304752391        12.4539921541         0.2586470149
O          6.0455413789        13.1972704035         1.1430703661
O          2.8638743954        10.5121074719         3.0691024378
C          6.8063620152        11.5989779250         5.8318120545
C          7.8690631105        12.4056395264         6.1878537389
H          6.3327425723        10.9148666305         6.5289040919
C          8.6114899504        13.4901980675         5.4983194766
H          8.2644401423        12.2796657473         7.2196490196
O          9.5872244000        13.9115707980         6.3704707713
H         10.1031728567        14.5641431345         5.8639973342
O          8.5331497555        14.0570221238         4.3867452549
C          7.1946985899        14.0591967245         1.3894105477
H          7.2917260217        14.6095246563         0.4385525889
H          7.0270039949        14.7407270734         2.2409210902
H          8.1162067512        13.4918853637         1.5471045233
C          2.0193478665        10.3502407150         4.2311608107
H          2.4952529304         9.7138756744         5.0044761709
H          1.7581980368        11.3681694607         4.5697797486
H          1.1296947573         9.8414045114         3.8375879547
          28
ANG Step:        275 Time:     5684.3589986832
C          4.5420456679        11.8315860866         2.0744793890
C          4.0386112214        11.1508128405         3.1763252107
C          4.7567164272        10.9927733543         4.4373452114
C          5.9285374440        11.6476239034         4.6269189843
C          6.4185009640        12.3933961773         3.4821317528
C          5.6895961852        12.5320723410         2.2441256692
H          4.3724771605        10.2436809851         5.1214884856
H          7.2907801248        13.0303958918         3.5681783069
O          3.7564021330        11.9733812942         0.9499225991
H          4.3286279246        12.5374237461         0.3789359504
O          6.1350240220        13.2000595115         1.1636983755
O          2.8193997845        10.6440133807         3.0242334245
C          6.7853680581        11.6276363225         5.8268918100
C          7.8940393214        12.4211127871         6.1156746685
H          6.4794211441        11.0094840969         6.6627749417
C          8.5885640307        13.4870869865         5.4107087292
H          8.3257458336        12.1364680262         7.0212496184
O          9.5678212753        13.9440663331         6.3225240051
H          9.9566428988        14.6914966524         5.8404677010
O          8.5375878967        14.0715015234         4.3171652769
C          7.2008287290        14.0579966695         1.4752373575
H          7.4113399425        14.7477866543         0.6716240908
H          6.9913698817        14.6450000074         2.3806888783
H          8.1115848416        13.4691860846         1.7110578667
C          2.1128779889        10.3303480709         4.2648497486
H          2.6146367075         9.5768725621         4.8947208043
H          1.9663584097        11.1905850905         4.9390205690
H          1.1639174263         9.8878189643         3.9363679757
          28
ANG Step:         31 Time:      640.7822871243
C          1.4636746855        13.2719073057         9.0712794503
C          2.8423296719        13.0891237742         8.7684735412
C          3.3975465049        11.7807778784         9.0115711864
C          2.6876048821        10.7479322521         9.6015704035
C          1.2512117023        10.9204058349         9.8230616686
C          0.6755943692        12.1769142994         9.5916521647
H          4.4189462832        11.6300612271         8.6872099161
H          0.6397608135        10.1530214558        10.2839016514
O          0.8236884371        14.5248714038         8.7548217254
H         -0.1259174047        14.4353915442         8.8718715174
O         -0.6110512123        12.4987524887         9.8173928011
O          3.6921550221        14.0217399243         8.3680288851
C          3.3470164150         9.4527722426         9.8222380891
C          2.9658470581         8.2064033152        10.3646786125
H          4.3535784874         9.4799200854         9.4164214182
C          1.7296145684         7.8912134306        11.0849028159
H          3.5221086455         7.2971472072        10.0922368191
O          1.5790777882         6.3374534625        11.2863160745
H          0.7156276112         6.2780371391        11.7012463505
O          0.8319397188         8.6387056262        11.5672244994
C         -1.3871597550        11.5799787030        10.6028041164
H         -1.7127121015        10.7587611077         9.9394531178
H         -0.9467798909        11.1897980396        11.5365721812
H         -2.2336112430        12.2225607892        10.8581938273
C          3.5909926346        15.4096365534         8.7295593017
H          3.3048127068        15.5230897610         9.7735214217
H          4.6173888190        15.7011928029         8.5304184619
H          2.8693569024        15.9888351935         8.1453102790
          28
ANG Step:         54 Time:     1116.2014033778
C          1.3811957588        13.3336230410         9.0561863516
C          2.7640851595        13.0539667536         8.8062913309
C          3.3926639003        11.7598434611         9.0282631161
C          2.6676908021        10.7029285642         9.5897861970
C          1.2762033969        10.8954505979         9.8000772646
C          0.7128259609        12.2314856873         9.6044103275
H          4.4576446924        11.6662690171         8.8251643107
H          0.7867093016        10.0256232772        10.2411273775
O          0.8595705441        14.5304378791         8.7191575355
H         -0.0833971583        14.4434654485         8.9511222875
O         -0.6229999433        12.5048146066         9.8194253836
O          3.6747017474        13.9844828130         8.3719400152
C          3.4375298632         9.4671141530         9.8567126165
C          2.8828496509         8.2466977632        10.3386829967
H          4.3723470826         9.3643632013         9.3020605060
C          1.6855595374         7.8519243624        11.1113279899
H          3.5739485477         7.4153677139        10.1120773030
O          1.6481728826         6.4047720555        11.2119992224
H          0.9308423137         6.0991037425        11.7800692056
O          0.8446276357         8.7584439660        11.5022881335
C         -1.4446323399        11.5834180809        10.5602312976
H         -1.6550176260        10.6588286075         9.9976834973
H         -0.8273049029        11.2847884241        11.4158692350
H         -2.4022925560        12.0420418966        10.8419078141
C          3.5976834638        15.4010901644         8.7461253748
H          3.2687246701        15.4794637048         9.7978383644
H          4.5711638090        15.8971812671         8.6416803185
H          2.8820336792        15.8271523178         8.0683607736
          28
ANG Step:         73 Time:     1508.9389341959
C          1.4182117457        13.2918705669         9.0453895775
C          2.7494962348        13.0664619812         8.8300510197
C          3.3203466974        11.7724911218         9.0498272068
C          2.7151503819        10.6745470398         9.5640003012
C          1.3297779190        10.9820600560         9.7788721163
C          0.6846950133        12.2448285331         9.6079481584
H          4.3957126282        11.8142019229         8.9375174976
H          0.6086353239        10.2241239491        10.0205151830
O          0.8662766745        14.5208100250         8.7081163777
H         -0.0614908037        14.5687132026         9.0013211204
O         -0.6318580198        12.5129801373         9.8134622694
O          3.6587883144        13.9459715331         8.4048410089
C          3.4054272680         9.4302801863         9.8928244509
C          2.8332345512         8.2378313594        10.3250263144
H          4.3367360985         9.3268999581         9.3479807107
C          1.7261727305         7.9123671373        11.0543591613
H          3.5487905572         7.4017704045        10.3050191541
O          1.6792356688         6.5668677264        11.1621747131
H          1.0281465177         6.3420848223        11.8506944660
O          0.8664111882         8.7146058454        11.4672197780
C         -1.4411772185        11.5581043660        10.5347538037
H         -1.6018042356        10.6295914763         9.9414709304
H         -0.9844760761        11.2627642120        11.5080253639
H         -2.3735948598        12.1041941903        10.7099197396
C          3.5525513380        15.3582924785         8.7402807778
H          3.1825849110        15.4406929077         9.7543565834
H          4.5780182703        15.6650039126         8.6151897223
H          2.8364297224        15.9083284420         8.1267314094
          28
ANG Step:         93 Time:     1922.3468613728
C          1.3921189882        13.3161541009         9.0436743857
C          2.7634301973        13.0495454952         8.8412735891
C          3.3710528027        11.7987857129         9.0698474457
C          2.6783788651        10.6993665186         9.5806590967
C          1.2915611113        11.0141016214         9.7621147790
C          0.6897112759        12.2630782527         9.5811230524
H          4.4247279071        11.7330399524         8.8258378690
H          0.6894747331        10.1502532346         9.9998833034
O          0.8720505154        14.5085886050         8.7027601763
H         -0.0281902977        14.5217522344         9.1029545083
O         -0.6210896117        12.5008395156         9.8154410944
O          3.6408422758        13.9360729269         8.4359935634
C          3.3657392496         9.4489479784         9.8560828888
C          2.9498045249         8.2102211925        10.2844291862
H          4.4012896354         9.4261389698         9.5345450536
C          1.7655050780         8.0155162883        10.9490527851
H          3.5650862320         7.3117639766        10.2065922299
O          1.6609976000         6.6689175994        11.1653570315
H          0.9655978408         6.6148133601        11.8612644848
O          0.8118644798         8.6690209355        11.4844885184