          28
ANG Step:         12 Time:      248.0447563062
C          1.4607697513        13.2705439458         9.0585133757
C          2.8177642315        13.0898925515         8.7890004891
C          3.3806227533        11.7884871337         8.9931357048
C          2.6663108227        10.7237294819         9.6062232692
C          1.3004241613        10.9973376658         9.8505380768
C          0.7181595957        12.2189094579         9.5453243045
H          4.4320556699        11.6814289406         8.7464439634
H          0.6825990261        10.1449588288        10.0977526847
O          0.8472117013        14.4503774791         8.8054822917
H         -0.0894833653        14.2581650003         8.9361561102
O         -0.5867410721        12.4873375619         9.8314472665
O          3.7028792960        14.0329189194         8.3616122667
C          3.3064397703         9.4262487457         9.7982311458
C          2.9157344281         8.1693129842        10.3902817434
H          4.3564994487         9.4260404430         9.5008887815
C          1.7754453930         7.8009405915        11.0794256109
H          3.6758154591         7.4076179346        10.2479345836
O          1.5339928727         6.4610426641        11.3231522597
H          0.6301657007         6.5345360886        11.6569311669
O          0.8538950970         8.4891836918        11.6007036982
C         -1.3913180953        11.5992247589        10.6189905009
H         -1.7512381837        10.7311259841        10.0647092048
H         -0.7651969687        11.2014338781        11.4185292987
H         -2.2715465566        12.1694709568        10.9461970177
C          3.5898255530        15.4191984683         8.7068358199
H          3.3565008550        15.4706736858         9.7926375014
H          4.5984092971        15.8514817539         8.5410125274
H          2.8345508650        15.9093655328         8.1084693442
          28
ANG Step:        159 Time:     3286.5930210568
C          1.4180736551        13.2989834267         9.0348611717
C          2.7721128711        13.1336465788         8.8343931176
C          3.3735708477        11.8383569725         9.0577284070
C          2.6571253782        10.7779615425         9.5327799861
C          1.3099308577        10.9447408073         9.8133045643
C          0.6761699479        12.2245669125         9.5403542691
H          4.3950640474        11.6617538254         8.7255980924
H          0.7167487010        10.1637067373        10.2590293598
O          0.8462554953        14.4473252167         8.7790481724
H         -0.0328391011        14.5712101124         9.1201783923
O         -0.6372909252        12.5113559452         9.7915885758
O          3.7466564769        14.0546238245         8.4505699340
C          3.4225651669         9.4869813811         9.7631886596
C          2.9262618993         8.3175351266        10.2562775325
H          4.4829348164         9.7096906432         9.6840364552
C          1.7390675230         7.9961857843        10.9774273047
H          3.5291147509         7.4453986375        10.0483313743
O          1.5560432054         6.6212487136        11.2345695576
H          0.7114115058         6.7014660399        11.6756281447
O          0.8535957957         8.8121597656        11.2873433388
C         -1.4706607371        11.5276281438        10.4040216773
H         -1.5044789768        10.6201399464         9.8088189810
H         -1.0964337063        11.4174418822        11.4131886426
H         -2.4651135652        11.9710509357        10.5689784337
C          3.4687535808        15.4147907875         8.6798249767
H          3.0220589304        15.5065554365         9.7096004029
H          4.4444820385        15.9595653567         8.6206901826
H          2.7596007700        15.8725558312         7.9751595970
          28
ANG Step:        254 Time:     5250.2806751473
C          1.4434955969        13.4390708689         9.0996523464
C          2.8075606322        13.2404946740         8.8275856173
C          3.3851033394        12.0214442830         9.0020595883
C          2.7696369412        10.8456356891         9.4985049258
C          1.3671230396        10.9812915588         9.6875539364
C          0.7408876952        12.2837379107         9.4714688520
H          4.4001236341        11.9659575296         8.6258504010
H          0.7282311694        10.1188591625         9.9381735734
O          0.8547516306        14.6423803053         8.9056981503
H         -0.1046391743        14.5212180884         8.9330324579
O         -0.5833960739        12.5814658638         9.6426198925
O          3.7424438335        14.1387913301         8.4573422887
C          3.4266484758         9.5092993022         9.7637215189
C          2.9546190773         8.2868862651        10.2792336945
H          4.4323720692         9.5651550011         9.3943608422
C          1.6626407858         7.9964031826        11.0183015584
H          3.4817165314         7.3648103539         9.9955572373
O          1.4891986651         6.6067283260        11.2741945273
H          0.5867326837         6.5471760766        11.6274828242
O          0.7019012435         8.7202671284        11.3519416280
C         -1.3620830092        11.6694732257        10.4249995641
H         -1.5461363446        10.7401234641         9.8312503158
H         -0.9547268552        11.3851173694        11.4452409938
H         -2.2824618217        12.2288355896        10.5144944850
C          3.4191927977        15.5390365414         8.6257467959
H          3.1406113072        15.7998650019         9.6220915172
H          4.3631585896        15.9445442387         8.3765346377
H          2.6359527509        15.9684883240         7.9917856781
          28
ANG Step:        282 Time:     5829.0517731951
C          1.5114266210        13.4331803971         9.0635988636
C          2.8421527402        13.2630916108         8.8694919017
C          3.4842997795        11.9259682414         9.0497897234
C          2.7088715406        10.8757214127         9.4846789395
C          1.3303354251        11.0841492259         9.6447053662
C          0.7469991362        12.3121979767         9.4607459894
H          4.5687721539        11.8963386099         9.0275890316
H          0.7166274633        10.2363370951        10.0030043579
O          0.8612428459        14.6774699445         8.9713305263
H         -0.0944096932        14.4983616254         8.9945025767
O         -0.5496030156        12.5673675015         9.6233589414
O          3.7364873372        14.1886966238         8.4394963633
C          3.2817069982         9.5244545282         9.7253727841
C          2.8436913147         8.3367863960        10.2843485814
H          4.3429323469         9.4617049709         9.4217536371
C          1.6678300447         8.0207350618        11.0182849033
H          3.5935234377         7.6211647378        10.3911728699
O          1.5578254935         6.6944199901        11.2251844428
H          0.6271634844         6.6665333727        11.5167677637
O          0.6865675522         8.7003622366        11.3568470955
C         -1.3293831053        11.6521619847        10.4084115636
H         -1.5115408133        10.7273099190         9.8347362164
H         -0.7418687859        11.5195541484        11.3329076888
H         -2.2726252777        12.1171529601        10.7703505158
C          3.4158221310        15.5463262638         8.5839112536
H          3.1097617105        15.6621671720         9.6163328841
H          4.2564874850        16.2173107036         8.3508355653
H          2.5749275671        15.6831205898         7.8819918444
          28
ANG Step:        359 Time:     7420.6722928264
C          1.4783162492        13.4643133073         9.1352982740
C          2.8675919926        13.3190843314         8.9282024338
C          3.4433297617        12.0725425030         9.0703857441
C          2.7232129672        10.8677611601         9.4901372422
C          1.3337434346        11.0336245028         9.5606020964
C          0.7060539022        12.3469791933         9.4400114110
H          4.5201034447        12.0458998031         8.9574984104
H          0.6732340649        10.1971518580         9.7924891563
O          0.9940057751        14.7148635334         9.0081555156
H          0.1158456915        14.7531522446         9.4043489913
O         -0.5971917575        12.6479490983         9.6709330184
O          3.8055083124        14.2525642547         8.5654688684
C          3.3259095572         9.5510573620         9.6377421304
C          2.8062069347         8.4196081967        10.2648270485
H          4.2892546603         9.4054973286         9.2410985282
C          1.5910705566         8.1446874293        10.9841765041
H          3.4873993836         7.5669258781        10.3670620888
O          1.5920707133         6.7972537762        11.2078504809
H          0.9532105299         6.5715355109        11.8830693949
O          0.5849050872         8.7802894161        11.2847352545
C         -1.2776537296        11.6507748631        10.4205353876
H         -1.4859765259        10.7740587556         9.8076164487
H         -0.7064137763        11.2987157016        11.2736808907
H         -2.2049825546        12.0813810472        10.6708977007
C          3.4290497658        15.5740415298         8.4185162894
H          3.0206548012        15.9946873291         9.3322482529
H          4.3094946604        16.1232171656         8.1425427264
H          2.6737833149        15.6907764011         7.6149420864
          28
ANG Step:        383 Time:     7916.7618054387
C          1.5130621956        13.5087776842         9.1280468934
C          2.9300682123        13.2878501779         8.9419339185
C          3.4604640673        12.0047534827         9.0787877492
C          2.7105998295        10.9375994793         9.4469415191
C          1.2645848468        11.0491934137         9.5140954761
C          0.7517097644        12.3137574171         9.4559010676
H          4.5277517803        11.9245762718         8.8992265241
H          0.7684261960        10.1443184603         9.8825313780
O          0.9610562343        14.7533245029         9.0423400370
H         -0.0096526609        14.6656959330         9.2188618073
O         -0.5596734530        12.6312645678         9.7197372361
O          3.7895478875        14.2426913829         8.6437055331
C          3.3541445452         9.6197252076         9.6323932623
C          2.7909170619         8.4670721573        10.2063250048
H          4.3586411872         9.5832789953         9.2539415745
C          1.6603339637         8.1344958450        10.9676596838
H          3.4625071922         7.6296353721        10.0526760307
O          1.5489607309         6.7945230276        11.2769175801
H          0.6407100321         6.8043367943        11.6882839523
O          0.5768172465         8.8102721604        11.2367282811
C         -1.3303675968        11.6492551351        10.4381237741
H         -1.5028801912        10.7815029973         9.8105263622
H         -0.7581860023        11.3441391844        11.3139819785
H         -2.2363918417        12.1284531489        10.7415899674
C          3.4405748640        15.6494053250         8.3495376980
H          3.0641036301        16.1359388400         9.2331820782
H          4.4021692531        16.0482547945         8.0756983867
H          2.7131608757        15.7876671959         7.5259417365
          28
ANG Step:        407 Time:     8412.8513180511
C          1.5612508478        13.4814163880         9.1252422586
C          2.9160896963        13.3002510412         8.9400127781
C          3.4927713533        12.0240553324         9.0873011951
C          2.6300492670        10.8777465089         9.3819145488
C          1.2844960964        11.0778881259         9.5315443051
C          0.7669634785        12.3661020744         9.4529282997
H          4.5596610121        11.8617097275         8.9473033744
H          0.5851773116        10.3090288024         9.8087342562
O          0.9218810025        14.7585129091         9.0817872222
H         -0.0324626002        14.5328928982         9.1002988926
O         -0.5178206033        12.6164908945         9.7707146935
O          3.8084549454        14.3357266563         8.6820214431
C          3.3258917029         9.6872985697         9.6424102702
C          2.8518527267         8.4802313494        10.1585878847
H          4.3500263730         9.6150143337         9.2762349842
C          1.6364534542         8.1667229586        10.8652828412
H          3.3951565268         7.5569817876        10.0280363892
O          1.5070650133         6.7829193283        11.3734338811
H          0.5511065796         6.5839564747        11.4957181655
O          0.6172940188         8.8612590350        11.1957574790
C         -1.3644142398        11.6373940147        10.4634338206
H         -1.6127329432        10.7994479740         9.8115770062
H         -0.8806992122        11.3026073795        11.3892867658
H         -2.2813767578        12.1917329094        10.6946340612
C          3.4940664383        15.6605114958         8.3135375606
H          3.0775287985        16.2063794402         9.1494077075
H          4.4274571758        16.1323635527         7.9809710035
H          2.7787814008        15.6182004863         7.4804745126
          28
ANG Step:        417 Time:     8619.5552816395
C          1.5193709620        13.5143535465         9.1292412529
C          2.9538925436        13.3293245461         8.9293614682
C          3.4691641336        12.0349936688         9.0833074404
C          2.6376755691        10.8814405646         9.3564679281
C          1.2836662468        11.1105641903         9.5462561773
C          0.7919743574        12.3708007230         9.4523971997
H          4.5581869104        12.0217674084         9.0044974522
H          0.6329430723        10.2693334469         9.7616900433
O          0.9240200183        14.7158687991         9.0983551959
H         -0.0428433910        14.6289569318         9.0973322306
O         -0.5457600569        12.6176386664         9.7997230928
O          3.8352084131        14.3622986100         8.7018922696
C          3.3144705045         9.6595567546         9.6436811778
C          2.8319853656         8.4614581903        10.1623400511
H          4.3535200704         9.6860546939         9.3017069539
C          1.6367668310         8.1318193527        10.8239955501
H          3.4677558981         7.5662188476        10.1297965148
O          1.5000345678         6.8286087914        11.3921619531
H          0.5763477261         6.5136432790        11.4350023208
O          0.6440561608         8.8771939759        11.1768912773
C         -1.3518303974        11.6481283856        10.4593187256
H         -1.6393666762        10.8575845484         9.7454902699
H         -0.9796527409        11.3294923435        11.4439591784
H         -2.2565390831        12.2343296062        10.6993775955
C          3.4887110652        15.6541790941         8.2920413546
H          3.1230294265        16.2147349777         9.1827612618
H          4.4652266157        16.0642096024         7.9869720857
H          2.8353022396        15.6319985781         7.4201695842
          28
ANG Step:        428 Time:     8846.9296415869
C          1.5077469710        13.5314188372         9.1307402892
C          2.9510663283        13.3827559072         8.9212997241
C          3.4401485334        12.0556237399         9.0734582261
C          2.6767390746        10.9068187526         9.3405547438
C          1.2960714889        11.1193728932         9.5521982110
C          0.7686213003        12.3955331570         9.4665592673
H          4.5269834388        12.0561789732         9.0886676871
H          0.6969112388        10.2613960765         9.8157414445
O          0.9248036601        14.6953084562         9.1125942858
H         -0.0367984179        14.6432553280         9.1342829447
O         -0.5570068125        12.6315679254         9.8219416299
O          3.8671272398        14.3531587099         8.7301368559
C          3.3072009567         9.6205341504         9.6317908297
C          2.8044268109         8.4121098687        10.1762163826
H          4.3655784787         9.6669240723         9.3710634350
C          1.6080444172         8.0911037945        10.8103880333
H          3.5723535110         7.6502334764        10.2056923564
O          1.5131280555         6.8835457220        11.3980118108
H          0.5929995126         6.6207952311        11.3536333766
O          0.6784238771         8.8886859121        11.1450882404
C         -1.3555313946        11.6743720828        10.4530362933
H         -1.6083189576        10.8497723476         9.7865163219
H         -0.9546270178        11.2582578787        11.3864054170
H         -2.2667100440        12.2380662500        10.6696538800
C          3.4918787775        15.6571373327         8.2717107090
H          3.0843223763        16.2505606304         9.0754360548
H          4.4640572725        16.0587136938         7.9862367228
H          2.8069593464        15.6989231128         7.4142483978
          28
ANG Step:        461 Time:     9529.0527214289
C          1.4769203080        13.5528390407         9.1539527631
C          2.9049934849        13.3863065376         8.9519358764
C          3.4767532549        12.0655826132         9.0594697280
C          2.7222518800        10.9354370757         9.3765624057
C          1.3364798077        11.1343164610         9.5813985442
C          0.7565753726        12.4060441386         9.5048667359
H          4.5644168620        12.1336764826         8.9368398454
H          0.8757676196        10.3019472514        10.1335277978
O          0.8895954600        14.7970623364         9.1318412627
H         -0.0296321027        14.6032583795         9.4362373024
O         -0.5528243963        12.7575058258         9.8301333419
O          3.8650754933        14.3544439399         8.7788013633
C          3.3084532555         9.5639789726         9.5778756637
C          2.8732664379         8.3850015918        10.1182550041
H          4.3727188570         9.5709830760         9.3591172061
C          1.6134512863         8.1718698593        10.8289212991
H          3.4872804845         7.4819087245        10.1464897091
O          1.5172259851         6.8779597020        11.4348568222
H          0.5715722111         6.7784765152        11.6752408569
O          0.6651220622         8.9210092131        11.0230269138
C         -1.3760766075        11.6825353047        10.4381283257
H         -1.5363254273        10.9256155649         9.6501293934
H         -0.8538455661        11.3622580244        11.3480157638
H         -2.3012828944        12.1301276379        10.7874772444
C          3.5177120083        15.6530142472         8.2356040237
H          2.9895441995        16.2056680694         9.0338367068
H          4.4208954043        16.1518541734         7.8981963732
H          2.9057446116        15.3812143320         7.3689748673
          28
ANG Step:        472 Time:     9756.4270813762
C          1.4524146638        13.6053693413         9.1590304859
C          2.9170005745        13.3946422565         8.9723908918
C          3.5137501036        12.0122987117         9.0704333030
C          2.7317835906        10.9245308063         9.3937754201
C          1.3410739717        11.1380358645         9.6276083843
C          0.7753981673        12.4663344513         9.5002372086
H          4.5652703390        12.0996200025         8.8282710144
H          0.8205317426        10.2637562360        10.0164765944
O          0.8778533712        14.8134786815         9.1381340253
H         -0.0147730564        14.8098202687         9.5292916274
O         -0.5544860934        12.7753381002         9.8321421345
O          3.8282153927        14.3461950011         8.7892704672
C          3.3656793633         9.5754166722         9.5460104226
C          2.8759744913         8.3884364027        10.1086692582
H          4.3866469538         9.6846458918         9.1476241118
C          1.6046970587         8.1935200246        10.8760287450
H          3.5480344797         7.5446908543         9.9757083610
O          1.5235462520         6.8548769152        11.4320542651
H          0.6479045025         6.9164610977        11.8958633873
O          0.6335092995         8.9372427728        10.9768171705
C         -1.3485868365        11.6986362227        10.4300858497
H         -1.5370079928        10.9314143804         9.6904794789
H         -0.9012045733        11.2332285627        11.3176463321
H         -2.2974210005        12.2049711800        10.7028969476
C          3.5020946747        15.6168802704         8.2281186279
H          2.9557209555        16.2138783618         8.9492236491
H          4.4873594639        16.0501217429         7.9782748114
H          2.8903229467        15.4929597625         7.3330621262
          28
ANG Step:        497 Time:    10273.1869903474
C          1.5387893064        13.6390788856         9.1702244998
C          2.8626898115        13.3440550239         9.0375989701
C          3.4705741785        12.0341372509         9.0921139958
C          2.7601281965        10.9160547499         9.4613750454
C          1.3630413046        11.2515624407         9.6689673380
C          0.7657693791        12.5222644914         9.5563747749
H          4.4811637522        11.8121808274         8.7748191405
H          0.6331466339        10.4670047144         9.5921922961
O          0.8860104043        14.9193518989         9.1301218782
H          0.1521908068        14.7243879893         9.7563908992
O         -0.5026728296        12.7543710117         9.8403661304
O          3.7528413674        14.3004757555         8.7940492907
C          3.4194940557         9.5830898734         9.4929591200
C          2.8519833784         8.4645191365        10.1033808222
H          4.2890145240         9.3128824880         8.8526365721
C          1.6565514380         8.1762962349        10.8717321113
H          3.4247106492         7.5263237211        10.0773196234
O          1.5388328403         6.9063285882        11.4072220457
H          0.9591590783         6.9953573839        12.1859864179
O          0.5878853591         8.9210500354        10.9304465590
C         -1.3163771195        11.7414171987        10.3830839476
H         -1.5174600495        10.9792634398         9.6115415744
H         -0.7940377644        11.3259183645        11.2778962053
H         -2.2900424205        12.2313427910        10.6959744600
C          3.4681651020        15.5841469050         8.2129177034
H          2.9158673471        16.2300971389         8.9322434170
H          4.4819046311        16.0335831476         8.0466176630
H          2.9663915864        15.4678125731         7.2559250432
          28
ANG Step:        576 Time:    11906.1483026964
C          1.6606619840        13.6849535221         9.3537982529
C          2.9990942288        13.4353426805         9.0937037938
C          3.5123308369        12.0912909582         9.2433544383
C          2.6112409180        10.9853683760         9.3442555465
C          1.2579660079        11.2650233423         9.6424877395
C          0.7507072558        12.5887718170         9.5757511330
H          4.5825785505        11.9388228062         9.1633915933
H          0.5621312058        10.4478812021         9.7569356062
O          1.0532219538        14.9328240633         9.2461578938
H          0.0921447293        14.8887594202         9.2681250722
O         -0.5581907684        12.8265671624         9.9270689799
O          3.8988750527        14.3554028024         8.6476575410
C          3.3156020332         9.7143394547         9.4140288517
C          2.7481071343         8.5900043609        10.0496269959
H          4.3807766703         9.7733915980         9.1845263058
C          1.6146317323         8.2346032952        10.8283349275
H          3.3800226995         7.6995488103        10.1409030910
O          1.6927444089         6.9772159520        11.4736919089
H          0.8079965245         6.6022415414        11.3937402339
O          0.5494065071         8.8813537991        10.9255205160
C         -1.3627688214        11.6950526200        10.3561549869
H         -1.6190032309        11.0091246972         9.5849842178
H         -0.8929758068        11.1001686766        11.0928460403
H         -2.2820758112        12.1598792871        10.6742611694
C          3.4777658029        15.6889738749         8.1393047773
H          2.9242984051        16.2887486613         8.8351389733
H          4.3935316814        16.1859416961         7.8254519785
H          2.7993487691        15.5335656269         7.3095072575
          28
ANG Step:        690 Time:    14262.5734876050
C          1.6045626402        13.8673246141         9.3662382521
C          2.9593409949        13.5240466704         9.0717275860
C          3.4583217814        12.1731938826         9.0745056216
C          2.6511169514        11.0409196735         9.3689062494
C          1.2706843772        11.3253376599         9.5830979035
C          0.8504399127        12.7053622423         9.6142942807
H          4.5219382527        12.0460285178         8.8756251956
H          0.6166232879        10.5874242709        10.0542947798
O          1.0508988344        15.0942879054         9.4467688590
H          0.2801257785        15.0071402425        10.0452609536
O         -0.4415362984        12.9234555695         9.9920112964
O          3.8572822907        14.4243455984         8.6237462085
C          3.3069300952         9.7091619858         9.4068810221
C          2.8267246967         8.4899700960        10.0962962884
H          4.3924647228         9.8055006803         9.3018978834
C          1.6326558773         8.2715759429        10.8301292914
H          3.5925259932         7.6557038393        10.2240833219
O          1.6933533173         6.9959617840        11.4133078589
H          0.8116606263         6.9955438990        11.8859812058
O          0.5497674505         8.9318789426        10.9293696749
C         -1.3679298979        11.8779014910        10.2072846889
H         -1.6529855624        11.4057048160         9.2713485230
H         -1.0465144375        11.1309947833        10.9652992511
H         -2.1920802559        12.4223604114        10.6610959616
C          3.5195940146        15.7588990496         8.1816621447
H          3.6309082782        16.4584205706         9.0473654425
H          4.2889233189        15.9130544141         7.4221503869
H          2.5281365449        15.7492758600         7.7268139528
          28
ANG Step:        700 Time:    14469.2774511935
C          1.6275245744        13.8594642391         9.3545392317
C          2.9423224572        13.5706823671         9.0846846005
C          3.4908609812        12.1693350477         9.0211711626
C          2.6107005273        11.0748641812         9.3339356698
C          1.2367699040        11.3426887938         9.6199758028
C          0.8164096255        12.6872896666         9.6224368336
H          4.5683676932        12.0831128196         8.8878346164
H          0.6168088805        10.5861992077        10.0899976009
O          1.0635291313        15.0768988171         9.4665829504
H          0.3065366087        15.0431627477        10.0600726606
O         -0.4446159103        12.9426480447         9.9947087958
O          3.9024709320        14.4386940933         8.6126143084
C          3.2859334976         9.6792269259         9.4610196046
C          2.8615833167         8.4770679115        10.0788831328
H          4.3703837773         9.7282730453         9.4253168581
C          1.6430234436         8.2812501707        10.8374635174
H          3.6472052408         7.7838685539        10.0577157671
O          1.6699143653         7.0468962397        11.4056929598
H          0.7785922713         6.8992553794        11.7164051818
O          0.5806693189         8.9293980243        10.9336767355
C         -1.3501674841        11.8927561134        10.2071919493
H         -1.6764754437        11.3856625223         9.2512691221
H         -1.0744916195        11.0625260549        10.8729951336
H         -2.2136031005        12.4491629180        10.5927449793
C          3.4971688871        15.7436938872         8.2025552454
H          3.6056560014        16.4462758345         9.0058022867
H          4.2687771310        15.9286601183         7.4539099308
H          2.4780101965        15.8357669362         7.7838071175
          28
ANG Step:        714 Time:    14758.6630002174
C          1.6160799589        13.7824835751         9.3624075006
C          2.9883492872        13.5949725812         9.0540460078
C          3.4473365277        12.1750764874         8.9842138629
C          2.6247185832        11.0844095789         9.2928260097
C          1.2620490874        11.3789221133         9.6645627518
C          0.7836700726        12.6856801474         9.6305682350
H          4.5312277026        12.0803800984         8.8629055794
H          0.7049100932        10.4789685342         9.9849211633
O          1.0847066369        15.0788593395         9.4892663246
H          0.3124119359        15.0098168355        10.0808584742
O         -0.4410702088        12.9892741113         9.9984692737
O          3.9264985741        14.4407226743         8.6191163537
C          3.2448345475         9.6909632854         9.5350810381
C          2.8760747821         8.5186374140        10.0615782412
H          4.3006632548         9.7207820518         9.3627837221
C          1.6809166553         8.2717423687        10.8085439823
H          3.6122694129         7.7275634885        10.0219978878
O          1.6388793119         7.0843482199        11.4114716832
H          0.7214493637         6.8039743115        11.5267113396
O          0.6201587885         8.9439057390        10.9390656313