          28
ANG Step:         89 Time:     1839.6652759375
C          4.4702010260        11.7004965621         2.0217237219
C          4.1449717352        11.0605151679         3.1734030302
C          4.8892515505        11.0998186434         4.3412577368
C          6.0768772471        11.8674629669         4.5056215071
C          6.4103569923        12.5142736636         3.3569711181
C          5.5722326255        12.4536156877         2.1368659272
H          4.4700508288        10.5427422801         5.1786793891
H          7.3411912253        13.0563527666         3.2239251155
O          3.6188345759        11.7525001429         0.9826093578
H          4.0778650462        12.2674290785         0.3105298165
O          5.8186536816        13.1504920728         1.0354547280
O          3.0643291999        10.2350179037         3.0335457577
C          6.8044505580        11.7524723330         5.7946375964
C          7.8916167133        12.3653184019         6.3360727498
H          6.4492740229        10.9463811910         6.4120677444
C          8.6202432704        13.4127226409         5.8138868140
H          8.2618750015        12.0303469374         7.2973445339
O          9.6434106817        13.7134802858         6.7085053240
H         10.1090096970        14.4090128007         6.2010955773
O          8.6182039696        14.0710914070         4.7272594484
C          6.9496730098        13.9205538195         0.8177044211
H          6.7372251293        14.4854618082        -0.0778379967
H          7.2940023844        14.5605628445         1.6254288155
H          7.7274187951        13.1716484071         0.5702168742
C          1.9464633361        10.5533527540         3.8152585674
H          2.2122705371        10.8210614960         4.8348136386
H          1.3324820581        11.3496056944         3.3847225421
H          1.3353586252         9.6545676582         3.8293359549
          28
ANG Step:        290 Time:     5994.4149440659
C          4.4909953768        11.7996063881         2.0686934847
C          4.0302979618        11.1303597401         3.2154945557
C          4.7579130311        10.9794876769         4.4877899638
C          5.9583207898        11.6208825447         4.6120702437
C          6.3760868944        12.3819375356         3.4801482280
C          5.7128640427        12.5175206009         2.3063063109
H          4.4897544259        10.3095784241         5.3033172059
H          7.2776073184        12.9356315419         3.7007168820
O          3.7729792109        11.9946431930         0.9320642174
H          4.3344771646        12.5839207487         0.3887326871
O          6.1821265530        13.2254539000         1.1837740859
O          2.7390253479        10.6952548234         3.0510120474
C          6.7597887952        11.6568323617         5.8373496121
C          7.8782854982        12.4085387664         6.0243148769
H          6.5001420513        10.9390943574         6.6049834480
C          8.6168267537        13.5119015651         5.4127797052
H          8.2976530396        12.1303974831         6.9950719261
O          9.5603267730        13.9741110020         6.2709412842
H          9.9870603088        14.7690664333         5.9092663119
O          8.5272564013        14.0529320549         4.3076348813
C          7.2708146283        14.0855893694         1.5084030615
H          7.3797606416        14.7962362684         0.6709934246
H          6.9341804740        14.6700670714         2.3835511122
H          8.2362041351        13.6421757299         1.7368138059
C          2.1500737754        10.2933631837         4.2451322365
H          2.6756685419         9.4311584407         4.6981727584
H          2.1535702833        11.1821402757         4.9019927514
H          1.1139325007        10.0062917924         4.0050569764
          28
ANG Step:        343 Time:     7089.9459510848
C          4.5013554304        11.8662811313         2.0763422980
C          3.9603477190        11.1780470289         3.1825534773
C          4.7304871300        11.0119495331         4.3651950916
C          5.9320984731        11.6635073834         4.5871531734
C          6.4760378547        12.2938017735         3.4791569428
C          5.7979103045        12.4609586620         2.3023562404
H          4.3082806301        10.3988018977         5.1569037816
H          7.3962548406        12.8486720880         3.6163614418
O          3.7986243781        11.9793448922         0.9645511041
H          4.2477734578        12.6724580352         0.4442652296
O          6.2893019438        13.2850450251         1.3321196561
O          2.6403000969        10.8235076901         3.2138157411
C          6.7908796708        11.6625651174         5.7911395188
C          7.9306114907        12.4159064742         6.0752191401
H          6.5107641722        10.9704598766         6.5868524154
C          8.6212294465        13.4971990578         5.4196520253
H          8.4480516483        12.1534759570         7.0028908654
O          9.5886151963        14.0742462936         6.1943825238
H         10.0980045918        14.7322909181         5.6980765157
O          8.4977117651        14.0594999157         4.2242249144
C          7.3621896574        14.2035136362         1.5371870596
H          7.3484532040        14.7835581611         0.6157178596
H          7.0746768513        14.8256693568         2.3801710482
H          8.3389581539        13.7459743179         1.7458225629
C          1.9843035547        10.0741620175         4.3039259499
H          2.2631371798         9.0215691966         4.2504752695
H          2.2071858585        10.5650993389         5.2574631686
H          0.9390001451        10.2569013509         4.0841864677
          28
ANG Step:        374 Time:     7730.7282382091
C          4.5276969951        11.9130388899         2.1257747505
C          3.9167601342        11.2470155568         3.2945589421
C          4.7297212202        11.0591783541         4.4439330301
C          6.0253588692        11.6433581580         4.5874077139
C          6.6081232329        12.2804503578         3.3991189887
C          5.8263847414        12.5106613661         2.2981689255
H          4.3542022074        10.4757324796         5.2756994205
H          7.6304258607        12.6090652123         3.5119271554
O          3.7815462476        12.0068604885         0.9404835045
H          4.2346449238        12.5616582457         0.2953895166
O          6.2341575600        13.2946672356         1.2466614524
O          2.5994039435        10.8409963535         3.2620526401
C          6.8259792230        11.6281616685         5.8428224341
C          7.9262280016        12.4673401001         6.0761859413
H          6.5048881000        10.9292978528         6.6046684904
C          8.5995917142        13.5128119645         5.4249307556
H          8.3575157565        12.2868445623         7.0665573149
O          9.6233627709        14.0907186855         6.1898355871
H         10.0418204152        14.7284990628         5.5827948475
O          8.4870908729        14.0265291907         4.2608966965
C          7.3364890467        14.2090573197         1.5481470312
H          7.5219003416        14.8096731622         0.6566136226
H          7.1866043529        14.8562727987         2.4185413024
H          8.2251888773        13.6055875601         1.7126739335
C          1.9438943523        10.0341821350         4.2336765616
H          2.2080493483         8.9852571203         4.0496074527
H          2.1661806335        10.2965020620         5.2702935790
H          0.8687474088        10.1222285877         4.0399668789
          28
ANG Step:        513 Time:    10603.9133320889
C          4.4789792823        11.9763414107         2.2988364880
C          3.9818302978        11.3259034995         3.4095225996
C          4.7831491260        11.1742464215         4.5848336436
C          6.1328403363        11.6678450470         4.6513056209
C          6.5937664084        12.2752860772         3.4166176847
C          5.8063425044        12.4483866061         2.3256692449
H          4.4071993025        10.6531153935         5.4691316513
H          7.5774777958        12.6756558848         3.2991993561
O          3.6282532190        12.2741287643         1.2853484505
H          4.1287976531        12.3831682929         0.4569937654
O          6.3096830536        13.0886647812         1.1756161160
O          2.6687930836        10.9424519508         3.2982108333
C          6.8684721305        11.6534574805         5.9437869628
C          7.9596228813        12.4575764381         6.2509332205
H          6.4701980296        11.0925249037         6.7850260059
C          8.5966449708        13.5256734668         5.5285484663
H          8.4750099085        12.3537779176         7.2000640707
O          9.6364764168        14.0756131425         6.1276707638
H          9.9342584887        14.7849839708         5.5055351810
O          8.3408800938        14.0314867799         4.3691016918
C          7.3105134492        14.1285029205         1.2801520950
H          7.1916541666        14.6125285599         0.3584947017
H          6.9951911834        14.8094629234         2.1303906512
H          8.3586749886        13.8282524554         1.5384849471
C          2.0871224657        10.0037495641         4.1496808692
H          2.4054692729         8.9540780375         4.0238699569
H          2.2732230344        10.2677050095         5.2283107410
H          0.9740282976        10.1519723721         4.0325014295
          28
ANG Step:        522 Time:    10789.9468993186
C          4.4981695358        11.9680412024         2.3075341977
C          4.0083053615        11.2991181605         3.4245111519
C          4.8085783036        11.1367449236         4.5781150651
C          6.0959297638        11.6794736310         4.6522749641
C          6.5866777825        12.2965165449         3.4464401749
C          5.7919227409        12.4735867974         2.3125965031
H          4.3136937544        10.7588104046         5.4830590960
H          7.6584300388        12.5238863177         3.3974185684
O          3.6019173408        12.3010209941         1.2782276312
H          4.1231668056        12.4128189144         0.4684462847
O          6.3347786593        13.0647346764         1.1808375754
O          2.6651516742        10.9523412652         3.3117515475
C          6.8559896255        11.6933070435         5.9365773395
C          7.9760417493        12.4374028874         6.2779992133
H          6.3462291753        11.0511804440         6.6889397654
C          8.5912939285        13.5035247650         5.5039486984
H          8.4581069729        12.2696634052         7.2284938324
O          9.6498021871        14.0814080907         6.1391997311
H          9.9225036160        14.8195866599         5.5934635851
O          8.3099247663        14.0425621444         4.3701581217
C          7.3223818301        14.1250189950         1.2718660946
H          7.2485960963        14.6918293419         0.2781074099
H          7.0272710856        14.7553360985         2.0800062957
H          8.3447062449        13.8054825391         1.5013575458
C          2.0948376989         9.9941542968         4.1906322022
H          2.4215189075         8.9355983764         4.0237093974
H          2.2934759865        10.1889857496         5.2672247334
H          1.0335037115        10.0497151744         3.9662908311
          28
ANG Step:        532 Time:    10996.6508629070
C          4.5027358563        11.9794255641         2.2816961813
C          4.0134825855        11.2657112502         3.4344690722
C          4.8346212202        11.0985604507         4.5833231916
C          6.0596344210        11.7056369781         4.6610730225
C          6.5966565170        12.3018024726         3.4933565652
C          5.7980398995        12.5139828199         2.2952144877
H          4.2823054160        10.8352718886         5.4661937122
H          7.6645015256        12.3378656703         3.4709392408
O          3.5805742914        12.3215595070         1.2778993144
H          4.1421785073        12.4810688351         0.4826821968
O          6.3510866868        13.0300522789         1.1867099861
O          2.6850848913        10.9633171531         3.3315989410
C          6.8203779957        11.7268015449         5.9158202569
C          7.9970877519        12.4337687840         6.2826712100
H          6.3370991227        11.0488360684         6.5755895461
C          8.5761903454        13.4791890719         5.4783879572
H          8.4504130312        12.1781796538         7.2911659891
O          9.6712903178        14.0839945526         6.1612229453
H          9.9150409097        14.8895446852         5.6412528262
O          8.2705359392        14.0458967829         4.3816741973
C          7.3221907314        14.1251855206         1.2586052673
H          7.3488332192        14.6490763495         0.3539371402
H          7.0557213342        14.8106264434         2.0977946224
H          8.3148343126        13.6876558696         1.4022138599
C          2.1024145538         9.9750054438         4.2419904703
H          2.4917468359         9.0153044983         3.9480511080
H          2.2758073529        10.1627140076         5.2863218732
H          1.0515554072         9.9325318405         3.9366538255
          28
ANG Step:        620 Time:    12815.6457424857
C          4.4471678486        12.1625631623         2.3612815344
C          3.9737157155        11.4366529006         3.5081476392
C          4.8758575006        11.1314304695         4.6237210619
C          6.1177165218        11.7178738519         4.7009433430
C          6.6748797838        12.2532190914         3.4455118873
C          5.8134211661        12.4073568895         2.3459350953
H          4.3865665334        10.7978180779         5.5533005957
H          7.7142898056        12.4140467559         3.2498398986
O          3.6577199710        12.4100416122         1.2656419547
H          4.0968689660        13.0973112583         0.7307512442
O          6.2184963006        12.9752510677         1.1679746314
O          2.7183012959        10.8832633827         3.3615864790
C          6.8055408585        11.7230516333         6.0073165510
C          7.9873381254        12.3975205113         6.3277317081
H          6.3042712727        11.1072273893         6.7514702251
C          8.4611701796        13.5115166038         5.5755810616
H          8.4559236764        12.1401052093         7.2405279291
O          9.6526235890        13.9706382684         6.0799714529
H          9.9245287972        14.6507407016         5.4153876298
O          7.9900432016        14.1829940078         4.6028646675
C          7.3796873551        13.8328012231         1.2802182544
H          7.4426273306        14.4089539002         0.4011179218
H          7.2353049359        14.5406794020         2.1287155785
H          8.3703921654        13.3377078318         1.3385833389
C          2.4016700530         9.9403488152         4.3882692223
H          3.0894378906         9.1351761830         4.5240144359
H          2.2902394356        10.5287719140         5.2957388274
H          1.4708509629         9.4433245665         4.0664476573
          28
ANG Step:        631 Time:    13043.0201024330
C          4.4232638364        12.1468575744         2.3684715796
C          3.9646329851        11.4225855178         3.5145473508
C          4.8161057963        11.1780368408         4.6565970397
C          6.1705136845        11.6913119099         4.7048383252
C          6.7053002246        12.2553610818         3.4385953541
C          5.8397156459        12.4532863072         2.3288781820
H          4.3556114639        10.8084012306         5.5436932077
H          7.7665954721        12.4168158248         3.2911775779
O          3.6569500058        12.4278081807         1.2733032078
H          4.1996041985        13.0045517890         0.7242162327
O          6.2019560994        12.9835691228         1.1823811275
O          2.7334146990        10.8670344518         3.3643429948
C          6.8135803396        11.6773102041         6.0089674119
C          7.9555579813        12.4518611438         6.3034424699
H          6.3993668806        11.0375815975         6.7881002102
C          8.4633725010        13.5162671797         5.5880723116
H          8.4482973663        12.2229456164         7.3150070081
O          9.6422311747        13.9569220938         6.0408359475
H          9.9082059832        14.6347423326         5.4198067428
O          7.9660713960        14.1789390383         4.6729718948
C          7.3926936819        13.7825700136         1.2740007484
H          7.4296773270        14.4483303171         0.3509821677
H          7.2058594307        14.4147765486         2.1246668396
H          8.3383938448        13.2573976124         1.3758809326
C          2.4281967695         9.9439501929         4.3984870773
H          3.2288758783         9.1539082096         4.5400532949
H          2.1843893675        10.5506126765         5.3044665067
H          1.4949862260         9.4837032195         4.1099286222
          28
ANG Step:        821 Time:    16970.3954106141
C          4.4523716543        12.0895060882         2.5022597415
C          3.9884387944        11.4254674712         3.6441970731
C          4.8136325479        11.2233815158         4.7871733303
C          6.1858610051        11.6578744753         4.7785433514
C          6.6464859978        12.3720224500         3.6158070577
C          5.7363227600        12.5417155024         2.5498185779
H          4.3734508820        10.6169733012         5.6017000878
H          7.7089684914        12.4679927563         3.4612331527
O          3.6597842638        12.2216444613         1.3905271220
H          4.2686707363        12.5913854703         0.6952125602
O          6.1562080493        13.1244353144         1.3559635514
O          2.7449450964        10.9817861421         3.4580800618
C          7.1457308557        11.4771350205         5.9105478792
C          8.2320843058        12.2242347099         6.2318145955
H          6.7957781998        10.7097661786         6.6360101520
C          8.3558400887        13.5484366190         5.7160511991
H          9.0160922849        11.8227821941         6.8238094792
O          9.5131541753        14.1962443995         5.9594085693
H          9.3491112580        15.1446205024         5.7655169242
O          7.4889544635        14.1695238997         4.9874133161
C          7.4852191699        13.6074853652         1.2449424617
H          7.4913979876        14.4155706495         0.3836909766
H          7.8396833697        14.0907558768         2.1200041632
H          8.1984770586        12.7996987680         1.0200652104
C          2.1925413296        10.2385951713         4.5578322104
H          2.9381721869         9.4500988202         4.8729592975
H          1.9613294576        10.8708038812         5.4736008597
H          1.3030630506         9.7276666207         4.1768090333
          28
ANG Step:        832 Time:    17197.7697705614
C          4.4276151180        12.0726773644         2.5281984196
C          3.9650804380        11.4438527763         3.6543599045
C          4.8372625921        11.1500437400         4.7602961911
C          6.1964144824        11.6817975070         4.8145785564
C          6.5861024282        12.3995476603         3.5915246545
C          5.7620108801        12.5623607984         2.5012650641
H          4.3938667631        10.6821465307         5.6038727820
H          7.6548165613        12.5088375255         3.4806657969
O          3.6840242974        12.2118387317         1.3847949473
H          4.2576467537        12.6071411142         0.7234106066
O          6.1809070684        13.1355634043         1.3918998493
O          2.7218487671        10.9984285175         3.4768206067
C          7.1388943404        11.4218851466         5.9489865624
C          8.2906903212        12.2461814011         6.2010570568
H          6.9031307716        10.6842254579         6.6973581180
C          8.3667533292        13.5167282159         5.7099508078
H          9.1312906356        11.9470037043         6.8671023578
O          9.4856694261        14.2414913252         5.9694920411
H          9.3002579282        15.1801894978         5.8058563879
O          7.4739671455        14.1345506388         4.9927148380
C          7.4797623983        13.6077886452         1.2388325608
H          7.4783596648        14.2374188163         0.4349931400
H          7.8210068107        14.1628639447         2.1881470603
H          8.1788227565        12.7777248860         1.0662818464
C          2.1682309650        10.2585253326         4.5819997865
H          2.8692580894         9.4793889263         4.8412949607
H          2.0040965863        10.9074726322         5.4513263299
H          1.2750091174         9.7737497847         4.1830358181
          28
ANG Step:        843 Time:    17425.1441305087
C          4.4438626277        12.0919419478         2.5111551300
C          3.9635494813        11.4463333107         3.6712615853
C          4.8904012007        11.1097408377         4.7345130240
C          6.1727353680        11.6834327728         4.8505128197
C          6.5564615134        12.4002016666         3.6183822697
C          5.7671738320        12.5696331281         2.4911014679
H          4.4816085138        10.6988811692         5.6885304191
H          7.6034866123        12.5632347127         3.4422186703
O          3.7005129878        12.1975690009         1.3867656317
H          4.2692244027        12.6519462679         0.7396472245
O          6.1862697393        13.1529558376         1.3955330797
O          2.6823966100        11.0059789063         3.5162752414
C          7.1277508194        11.3921949664         5.9648918269
C          8.3306964865        12.2348791796         6.1738900358
H          6.9536820082        10.5786651794         6.6897906438
C          8.3621270161        13.5222047301         5.6766772486
H          9.1200846735        12.0308332337         6.8715607429
O          9.4693328397        14.2877619842         5.9880107967
H          9.2137074119        15.1985736471         5.7884351112
O          7.4628767237        14.0963874007         5.0007410108
C          7.5017324947        13.6063532781         1.2642490109
H          7.4739306310        14.2322169204         0.2741054458
H          7.7527645659        14.2124110757         2.1056424409
H          8.1726417044        12.7506645901         1.1096391859
C          2.1486778720        10.2714297793         4.5877693226
H          2.8150558592         9.4078483276         4.8783691600
H          1.9773150060        10.9786801594         5.4537011124
H          1.1686524714         9.8982692041         4.2452453729
          28
ANG Step:        855 Time:    17673.1888868149
C          4.4738294997        12.1193290640         2.4902307307
C          3.9819047560        11.4338158688         3.6679240566
C          4.9280219969        11.0951518916         4.7418244299
C          6.1491403279        11.6654337478         4.8619963494
C          6.5678110340        12.3816451309         3.6826258576
C          5.7478293130        12.5606225856         2.5435655393
H          4.5813094812        10.6218130327         5.6214100963
H          7.6078807260        12.5795484117         3.4636981563
O          3.7082975791        12.1825476281         1.3850670363
H          4.2414906672        12.7130129636         0.7354644116
O          6.1746976091        13.1775696928         1.3649687068
O          2.6600813454        11.0183667867         3.5642295672
C          7.1485899748        11.4094548610         5.9677264768
C          8.3146186351        12.1826343174         6.1436365975
H          6.9608639548        10.4823242486         6.5344443227
C          8.3661554004        13.5459065110         5.6420390934
H          9.0841594363        11.9363835213         6.8767013533
O          9.4512642231        14.3341869045         6.0101064066
H          9.1368426349        15.2261788547         5.7278433886
O          7.4388895940        14.0687983080         4.9977175374
C          7.5320172657        13.6180800624         1.2578981320
H          7.5559172762        14.1265236790         0.3419817882
H          7.8062364625        14.3260747601         2.0875632058
H          8.2225634978        12.7703929026         1.2205106554
C          2.1107480122        10.2807159936         4.6108267104
H          2.6733321834         9.4271495515         4.9050842554
H          1.9750267017        10.9258740408         5.4667424907
H          1.1104160835        10.0155593849         4.3203949415
          28
ANG Step:        865 Time:    17879.8928504034
C          4.4637539453        12.1141158024         2.5029006193
C          3.9999871562        11.4120438121         3.6478667935
C          4.9123672393        11.0954895639         4.7570746160
C          6.1713668386        11.6523435992         4.8557757546
C          6.5941870586        12.3661205514         3.7197696970
C          5.7633321254        12.5745566218         2.5901802827
H          4.5481790008        10.4252974994         5.5830634493
H          7.6437553084        12.5160494760         3.5690649613
O          3.7118211174        12.1769064736         1.3762227328
H          4.1628006044        12.7294401621         0.7428016470
O          6.1626375668        13.1923456356         1.3493147564
O          2.6782688188        11.0392025425         3.5977767566
C          7.1590424506        11.4312927904         5.9535801324
C          8.2856294524        12.1577840580         6.1200638271
H          7.0239968032        10.4531230913         6.4058481823
C          8.3801816020        13.5366609385         5.6405056573
H          9.0211956433        11.7736652092         6.8204838409
O          9.4277004324        14.3688580185         6.0227765601
H          9.1543041686        15.2319779907         5.6897904144
O          7.4074873540        14.0645047010         4.9833429600
C          7.5541453174        13.6263620508         1.2663594419
H          7.6640515303        14.1463096804         0.2332531857
H          7.8297094246        14.3478389589         2.0155491020
H          8.2696069515        12.7957798365         1.3497236357
C          2.0609263975        10.2947519686         4.6489135154
H          2.6139846655         9.3439024008         4.8965557563
H          2.0259990106        10.8982502225         5.5965281547
H          1.0398337301        10.0478688251         4.3046132326
          28
ANG Step:        877 Time:    18127.9376067096
C          4.4529178737        12.0961838681         2.5330528272
C          4.0150354992        11.3691221760         3.6428519906
C          4.8661133741        11.0964283564         4.7792932507
C          6.1935427761        11.6242709223         4.8530616045
C          6.6383233154        12.3646861960         3.7221281374
C          5.7967105457        12.6156558054         2.6035443285
H          4.5179399153        10.3288134722         5.4223583376
H          7.7203671979        12.3897564039         3.6374502179
O          3.7082139339        12.1710064084         1.3724506065
H          4.1510984873        12.7874080706         0.7451840299
O          6.1667338276        13.2013501010         1.3665742512
O          2.7168619577        11.0636478050         3.6376123574
C          7.1224186322        11.4259234621         5.9101608097
C          8.2826585005        12.1807897064         6.1028669266
H          7.1776943446        10.4019384386         6.3531912697
C          8.3744764175        13.5119119707         5.6540810878
H          9.0198805537        11.6783665444         6.7036113169
O          9.3909229798        14.3915399633         6.0321175448
H          9.1821054462        15.2543618265         5.6321724058
O          7.3839934421        14.0665568290         4.9697166186
C          7.5686687597        13.6398829454         1.2600757361
H          7.7462260141        14.0150416010         0.2783514051
H          7.7739902321        14.4163396801         2.0382377917
H          8.2402943206        12.8016962008         1.4434880300
C          2.0143305170        10.3067280438         4.7068210879
H          2.4937440356         9.3557102762         4.8098408987
H          2.0412212776        10.8479255254         5.6398481500
H          1.0375222228        10.1317819973         4.3031426657
          28
ANG Step:        887 Time:    18334.6415702980
C          4.4807547922        12.0954813650         2.5464477017
C          4.0302223663        11.3349602438         3.6653198912
C          4.8503765883        11.1059690551         4.7782964154
C          6.1618927305        11.5894372376         4.8373666122
C          6.6777437828        12.3734218790         3.7016137728
C          5.8074825237        12.6441376443         2.5856432427
H          4.4822386023        10.2936840098         5.4544185368
H          7.7449196254        12.3083944458         3.5582582332
O          3.7052835186        12.1687099317         1.3814550564
H          4.1836801812        12.8047938461         0.8258106633
O          6.1877546931        13.2054547467         1.4027963839
O          2.7279854817        11.0711082727         3.6754991809
C          7.1048719081        11.3942838070         5.8797814862
C          8.2835926041        12.2089731743         6.0955825154
H          7.2109379622        10.4301041416         6.3425116657
C          8.3410447009        13.5228774692         5.6609035323
H          9.1327584828        11.7338288702         6.6068595497
O          9.3544663556        14.3903421109         6.0363565036
H          9.1620002184        15.2270688263         5.5664391043
O          7.3866564493        14.0633547235         4.9684829049