          28
ANG Step:        603 Time:    12464.2490043852
C          1.5840534232        13.6907677975         9.3387791011
C          2.9994086984        13.4752630545         9.1211835912
C          3.5155380489        12.1197494387         9.2328084630
C          2.6904480514        11.0654508526         9.3541349905
C          1.3054705986        11.3474642813         9.5097329256
C          0.7767339215        12.5931561060         9.6502457523
H          4.5850687247        11.9981224539         9.1997357298
H          0.7727141213        10.4772676686         9.8770836133
O          1.0797018557        14.9405871835         9.3206060089
H          0.1207156702        14.7540406328         9.1867252590
O         -0.5422092600        12.8837329705         9.9385913016
O          3.8639204845        14.3794683650         8.6214971899
C          3.2380599508         9.7150180709         9.4427478722
C          2.7893545878         8.5408470286        10.0592595628
H          4.2357640985         9.5607181835         8.9795305648
C          1.6404894017         8.2776675563        10.8575653449
H          3.6463612292         7.8426282893         9.9365930508
O          1.7013527319         6.9948461680        11.4454839060
H          0.7584329888         6.6901825702        11.5574067783
O          0.4908099152         8.8295244236        10.9376748517
C         -1.4096025981        11.7102324982        10.3415734418
H         -1.5556432770        11.0982209436         9.4562807237
H         -0.9187281264        11.1098299943        11.1268704231
H         -2.3402837241        12.1591303704        10.7485325952
C          3.5240327033        15.6990009550         8.1094323302
H          3.1965730020        16.3002740004         8.9935723449
H          4.5045909076        16.0316672375         7.7227113891
H          2.7676356421        15.6581651922         7.3438729141
          28
ANG Step:        615 Time:    12712.2937606914
C          1.6172638378        13.6794481412         9.3319211014
C          2.9556988911        13.4883334702         9.1038823092
C          3.5435037733        12.1993940655         9.2120117837
C          2.6904603524        11.1128237067         9.3807098944
C          1.3301520146        11.3439083781         9.4745376964
C          0.7548132897        12.5662340635         9.6944627505
H          4.6284799157        12.1472787148         9.1592564036
H          0.8148280427        10.4269640142         9.7710481292
O          1.0683676418        14.9926166451         9.3409870701
H          0.1058852232        14.8809426815         9.2701184008
O         -0.5257898168        12.8802442963         9.9510864879
O          3.8306568522        14.3751453702         8.6203651115
C          3.2257260379         9.6814709693         9.4391932562
C          2.8144137209         8.5085507977        10.1050068928
H          4.1062409694         9.5835841641         8.8288598710
C          1.6302687651         8.2875086731        10.8350302975
H          3.4954986861         7.6666178629        10.0354085258
O          1.7043418271         7.0049810450        11.4172701022
H          0.8512790497         6.7543997000        11.8266646511
O          0.4861620077         8.8126017632        10.9432307131
C         -1.3956214614        11.7731382849        10.3179548196
H         -1.5751148358        11.0653850862         9.4956107301
H         -0.8791016098        11.1325915710        11.0146381342
H         -2.3296606894        12.1612013288        10.6724222877
C          3.5704095721        15.6825483335         8.1252238072
H          3.2295725522        16.3152757168         8.9110764945
H          4.4725690631        16.0375617473         7.6499485790
H          2.6863467142        15.6483220996         7.4604392218
          28
ANG Step:        625 Time:    12918.9977242799
C          1.5812555262        13.6976255473         9.3487349998
C          2.9299711691        13.5062119929         9.0725888471
C          3.5615643804        12.2407811597         9.2009003238
C          2.7371483451        11.1234059460         9.3982066114
C          1.3258812667        11.2966021712         9.4813558293
C          0.7665449713        12.6046509102         9.7007424118
H          4.6390593815        12.2227499695         9.1079852297
H          0.7008051848        10.4042639595         9.5700414841
O          1.0684815618        15.0178876567         9.3532691968
H          0.0950327246        14.9942103437         9.3739876692
O         -0.5182453968        12.8696675151         9.9628105315
O          3.8135571053        14.3697489132         8.6234784661
C          3.2211477479         9.6640149090         9.4291277354
C          2.8363392502         8.5231391232        10.1313142906
H          4.0591845554         9.5923132391         8.7139685984
C          1.5845760664         8.2471509355        10.8316607925
H          3.3392141029         7.5241514561        10.1541449946
O          1.7181280793         7.0075739475        11.3980359527
H          0.9364160828         6.9525355889        11.9670675332
O          0.4962394615         8.8178518471        10.9416640574
C         -1.3687497197        11.8097968900        10.2907630352
H         -1.6113359940        11.1632280913         9.4425727271
H         -0.8762733788        11.1901043465        11.0668266505
H         -2.3237003523        12.2392436036        10.6456872545
C          3.5799224331        15.6682201097         8.1385214867
H          3.3175392520        16.4062136016         8.9483366428
H          4.4576553485        16.0283135545         7.5779964381
H          2.7155763211        15.6296172202         7.4960068535
          28
ANG Step:       1129 Time:    23336.8774891392
C          1.6534100944        14.0638007906         9.3342873382
C          3.0139871559        13.8061536036         9.1194572859
C          3.4888827500        12.3968917601         9.2469641527
C          2.7181377745        11.3300904243         9.2155866750
C          1.3896822294        11.5750178319         9.5580240249
C          0.9368648921        12.8938097663         9.7137544117
H          4.5451576857        12.2859910209         8.9630543960
H          0.7305540795        10.7288743087         9.7336928252
O          1.0295261858        15.2760847211         9.2133838896
H          0.1003120110        15.0794455230         9.4395743395
O         -0.3316188366        13.2331469401        10.0474245031
O          3.9562364036        14.6643661234         8.7388954157
C          3.2698747210         9.9326418026         9.0950133256
C          2.6503077058         8.8036585950         9.7414028018
H          4.3032296701         9.7961330010         8.6903640142
C          1.6816406835         8.6550035317        10.7263986556
H          3.1955537005         7.8554100884         9.4671702163
O          1.2775508801         7.2780934737        10.9331975174
H          0.6775145433         7.2871035026        11.6801918121
O          1.1444383299         9.5760818566        11.4460762581
C         -1.1999616266        12.2387494330        10.6571602592
H         -1.4712975442        11.3854828125         9.9786165173
H         -0.7262465442        11.8137551831        11.5642240263
H         -2.0610389818        12.8506988864        10.9889227875
C          3.6635186195        16.0757303284         8.7480255208
H          3.2053668949        16.3570537952         9.7417927665
H          4.6536475817        16.5785655432         8.6316692321
H          3.0168995699        16.3006171811         7.9184264722
          28
ANG Step:       1142 Time:    23605.5926418042
C          1.6269425746        14.0259844078         9.3191886464
C          2.9759160409        13.8068817385         9.1192881033
C          3.5668689953        12.4515513869         9.2145473996
C          2.7614418779        11.3544721816         9.2230761385
C          1.3688329482        11.5940069784         9.5286614988
C          0.9156640802        12.9140542815         9.7151327640
H          4.6454314169        12.4318703938         9.0972354824
H          0.6812943126        10.7924157831         9.6833338968
O          1.0684215401        15.2907554772         9.2312539405
H          0.1136856913        15.0772580666         9.3608997504
O         -0.3660364414        13.2673667312        10.0309498608
O          4.0123697131        14.6380699268         8.7439944588
C          3.2192665211         9.9155057470         9.1445134358
C          2.7182593707         8.7736925919         9.6860838950
H          4.0553870094         9.7731460557         8.4543048157
C          1.6830332887         8.6523770960        10.7321446742
H          3.2198258932         7.8553623880         9.4167492719
O          1.2668130680         7.3046136848        10.9307230954
H          0.5903899723         7.4635405364        11.6349468258
O          1.1617038248         9.5979793031        11.4561317861
C         -1.2244064124        12.2257702164        10.7139981672
H         -1.5227992798        11.4562251135        10.0580978982
H         -0.6885476291        11.8166625472        11.5296622197
H         -2.0782232058        12.8172801336        10.9992131893
C          3.6233323106        16.1062288341         8.7786154483
H          3.1538719029        16.3591052313         9.7093170401
H          4.6634885245        16.4216481430         8.6870363201
H          3.0212717088        16.2845532378         7.8669063287
          28
ANG Step:       1152 Time:    23812.2966053927
C          1.6318024995        14.0241785301         9.3077259581
C          3.0138870438        13.7802506068         9.1038395390
C          3.6225182120        12.5196427107         9.1708185130
C          2.7749659316        11.3197176376         9.2562136296
C          1.3616143021        11.6218174547         9.5078552047
C          0.8663041613        12.9328863410         9.7087394024
H          4.7181383874        12.4899983634         9.2106706968
H          0.6555350473        10.7990255953         9.6393674852
O          1.0906458988        15.2849953740         9.2480422164
H          0.1277684160        15.2069492600         9.3098121734
O         -0.4061730777        13.2652037147        10.0287946721
O          4.0041646497        14.6305453274         8.7667808981
C          3.1958981849         9.9353279503         9.1614489082
C          2.7409012326         8.7477466358         9.6806763620
H          3.8692152376         9.7917142688         8.3022778631
C          1.6897199054         8.6646273535        10.7417446590
H          3.1850498503         7.7863958732         9.3536494874
O          1.2581268267         7.3519940646        10.9328423436
H          0.5545325911         7.5092485701        11.5799190694
O          1.1861716731         9.5848429387        11.4382214423
C         -1.2272152764        12.2485625608        10.7461812674
H         -1.5583512972        11.4706753783         9.9894754136
H         -0.6060497349        11.7913483161        11.5705852402
H         -2.1455015891        12.7686645563        11.0680057001
C          3.6314236408        16.0932579390         8.7805393702
H          3.0786205395        16.3836794123         9.7102842585
H          4.6115685841        16.5915641665         8.7235997675
H          3.0260602981        16.3501225228         7.9264273493
          28
ANG Step:       1162 Time:    24019.0005689812
C          1.6430115113        14.0299618066         9.3033449021
C          3.0682940093        13.7593275316         9.0783600401
C          3.6417980381        12.5050188769         9.1360061181
C          2.7798654753        11.3316166638         9.3041283146
C          1.3654427269        11.6475882226         9.4923524471
C          0.8223531047        12.9495868229         9.6894927624
H          4.7119567316        12.4974747955         9.2547933510
H          0.6971193793        10.8175262987         9.5793762042
O          1.1153663858        15.2804391313         9.2630866186
H          0.1400680294        15.2888111080         9.2862413338
O         -0.4600449159        13.2505331118        10.0369992452
O          3.9707272388        14.6628484466         8.7960900366
C          3.2039102995         9.9549709377         9.1490203366
C          2.7254748197         8.7244885157         9.7161440907
H          3.7349092763         9.8305387219         8.2174981275
C          1.7248403809         8.6724121515        10.7320337209
H          3.0662850005         7.8053860389         9.2825330965
O          1.2474707179         7.4078799635        10.9366591319
H          0.5059286659         7.4741763762        11.5648858757
O          1.2130666858         9.5672217736        11.4111722811
C         -1.2205061743        12.2734346691        10.7567055489
H         -1.5172465829        11.5373208722        10.0411677425
H         -0.6316700672        11.8060901377        11.5327235545
H         -2.1077109617        12.7337547274        11.1811723984
C          3.6604934410        16.0707950117         8.7870752349
H          3.0839970982        16.3248902422         9.6405713455
H          4.5032000739        16.7610922560         8.7666781913
H          3.0089522356        16.3686567124         7.9394687171
          28
ANG Step:       1171 Time:    24205.0341362108
C          1.6501269800        14.0207263227         9.3084478876
C          3.0800526452        13.7562342876         9.0573858321
C          3.6300028809        12.4260445392         9.1232940126
C          2.7782420194        11.3884820159         9.3452677404
C          1.3728765552        11.6706883802         9.4851962662
C          0.8073798579        12.9599754179         9.6615333304
H          4.7318674669        12.4212252548         9.1956643391
H          0.7187600327        10.7958529787         9.5295323747
O          1.1425083124        15.2880307481         9.2734272194
H          0.1747555215        15.2457327656         9.2948417620
O         -0.5052958430        13.2440386971        10.0441223920
O          3.9538947837        14.7206553573         8.8185562072
C          3.2181123145         9.9435301978         9.1369528497
C          2.7086213323         8.7433218648         9.7441531176
H          3.7156668363         9.8376201417         8.1449811151
C          1.7601196876         8.6661052031        10.7221926372
H          2.9619836637         7.7865864420         9.2110947117
O          1.2369339927         7.4432312189        10.9377174883
H          0.4975036381         7.4800049460        11.5608589986
O          1.2350863394         9.5695230515        11.3896897469
C         -1.2109213109        12.2912289126        10.7597320963
H         -1.5431839431        11.4859007682        10.0739564582
H         -0.6148813792        11.7945945172        11.5299232683
H         -2.0548402926        12.7738477318        11.2692628477
C          3.6717574043        16.0640298958         8.7861713447
H          3.0509235968        16.2761388632         9.7100488563
H          4.5442203568        16.7415981906         8.7914860823
H          3.0356763851        16.2844660570         7.9418601543
          28
ANG Step:       1333 Time:    27553.6383463442
C          1.6250876183        14.0815328248         9.4271548339
C          3.0689587428        13.8549110867         9.1300880068
C          3.6016655840        12.5551690997         8.9285502917
C          2.7979027075        11.4240055401         9.1140273446
C          1.3578304991        11.6580117828         9.2667915476
C          0.8610845094        12.9102367380         9.5833766215
H          4.6796658541        12.6217922383         8.7949280600
H          0.7353243236        10.7727253429         9.1437119287
O          1.0869892130        15.2857944973         9.7305281147
H          0.1622955473        15.0743359000         9.5272904937
O         -0.4762715661        13.2263903467         9.8734117998
O          4.0858741977        14.6962794489         8.9904499780
C          3.2189030026        10.0077153839         8.9679082921
C          2.6563510433         8.9035732825         9.6687140512
H          3.5603275174         9.7028554922         7.9725163346
C          1.7569515435         8.9852403762        10.7324741083
H          2.7187256847         7.8838528177         9.2089565201
O          1.2202125063         7.7641448375        11.0684446672
H          0.4725262755         7.9517293173        11.6720168594
O          1.3530454066        10.0240391057        11.3025163004
C         -1.1637059146        12.3839826714        10.8648126443
H         -2.0180609478        11.9392256456        10.3263747297
H         -0.5073198000        11.5952112611        11.2732680238
H         -1.6141796666        13.0209659492        11.6878836366
C          3.8050453579        16.1217281906         8.9268405426
H          3.5812327080        16.4737239138         9.9349600217
H          4.5898477349        16.7640071780         8.4681610891
H          2.8788226545        16.3131072197         8.3624842294
          28
ANG Step:       1344 Time:    27781.0127062915
C          1.6709031146        14.0523173228         9.4276302031
C          3.0408054633        13.8655166823         9.1439090451
C          3.5798566905        12.5351315009         8.9934303685
C          2.7881143444        11.4618104638         9.0257558238
C          1.3653123314        11.5990182884         9.2543431825
C          0.8624536479        12.9280248358         9.5904055254
H          4.6296025250        12.4727932720         8.7211485276
H          0.6713141308        10.7842486824         9.1881104093
O          1.1225727124        15.2845601930         9.7568835216
H          0.1568197505        15.0575051284         9.6833906076
O         -0.4432036932        13.2251627124         9.8526380637
O          4.0846492429        14.7049372251         8.9830552891
C          3.1603414397        10.0096051045         8.9620155499
C          2.6788749150         8.8813715412         9.6665958704
H          3.5950266946         9.7921455567         7.9930186408
C          1.7204409605         9.0014175799        10.7456517950
H          2.7428984859         7.9243859858         9.2262988794
O          1.2387648549         7.7986882072        11.0802298753
H          0.4704233549         7.9819037963        11.6179970635
O          1.3557306731        10.0781271574        11.2871719072
C         -1.1748340663        12.3752796016        10.8673723930
H         -1.9875586390        11.8963764614        10.3257842366
H         -0.5135806703        11.5775948337        11.2320731707
H         -1.4652632504        12.9944602056        11.6734423008
C          3.7909463674        16.1781762749         8.9358058570
H          3.6127488289        16.5322926602         9.9595896198
H          4.5853002818        16.7887728431         8.5452608125
H          2.8808415006        16.4293860594         8.3943407900
          28
ANG Step:       1364 Time:    28194.4206334684
C          1.7138926357        14.0439429217         9.4863102083
C          3.0955964214        13.8485528995         9.1428501834
C          3.5413747182        12.4982550299         9.0647324876
C          2.6745372349        11.3808093372         8.9536018934
C          1.3396788639        11.6372672765         9.2726926043
C          0.8948515676        12.8973017670         9.5605161377
H          4.5841560121        12.2915224001         8.8267852201
H          0.6505914379        10.8294149542         9.1384819124
O          1.1973743700        15.2647350621         9.7734521794
H          0.2967802933        15.1892019796        10.1533245774
O         -0.4104996739        13.1907246272         9.8535995083
O          4.0194389410        14.8157038638         8.9644384323
C          3.1276426375         9.9971603584         8.8786844054
C          2.6587984752         8.9394232436         9.6600207302
H          3.8768564802         9.7653465500         8.1186019049
C          1.7538865907         9.0735556493        10.6955267922
H          2.9769794795         7.9723164634         9.3527127652
O          1.2277730253         7.8258003314        11.1372862844
H          0.4810676238         7.9987667668        11.7021420151
O          1.3438499609        10.1615528706        11.2633279467
C         -1.1248953256        12.3622190925        10.8133267227
H         -2.0614181065        12.0152007814        10.4002809354
H         -0.4734603305        11.5808973938        11.1591859208
H         -1.3754020248        13.0238868517        11.5958809622
C          3.7605558865        16.2448017150         8.9907486085
H          3.6466954405        16.5614079738        10.0459588122
H          4.7055824274        16.4842226509         8.5628256629
H          2.9092194006        16.4294849280         8.3470994494
          28
ANG Step:       1383 Time:    28587.1581642866
C          1.7462719840        14.0186116902         9.5510507334
C          3.1112857915        13.8317540070         9.1673947386
C          3.5250209821        12.4058711219         9.0335700615
C          2.6482177295        11.3510503316         8.9898230028
C          1.2709368691        11.6302489831         9.2634428580
C          0.8951795545        12.9554500706         9.5505725942
H          4.6198816895        12.3297790451         9.0646586464
H          0.4620450598        10.9402409928         9.0765724873
O          1.2824309988        15.2759498870         9.7905283173
H          0.5438159668        15.0795768772        10.3982216811
O         -0.3994841114        13.1647658078         9.8509276908
O          3.9324330482        14.8640562575         8.9638812016
C          3.1526490660         9.9675672854         8.7541665773
C          2.6556468879         9.0136541828         9.6025918502
H          4.1279420750         9.7668470619         8.2922380768
C          1.7355447047         9.1317566175        10.7232681090
H          3.1111436539         8.0275307993         9.6401706383
O          1.2235034209         7.8862497463        11.1842363613
H          0.6215758148         8.1781294070        11.8722732187
O          1.3343726278        10.1957039388        11.2133265796
C         -1.0603988124        12.3689314527        10.7743958780
H         -1.9697090841        12.0643874881        10.3015307269
H         -0.5606723236        11.4952338397        11.0834851745
H         -1.3033238688        12.9491489628        11.6533619593
C          3.7611285071        16.2495089224         9.0213819846
H          3.5546019898        16.6722993490        10.0481922236
H          4.6270385834        16.7885238745         8.6387156836
H          2.9459143195        16.6380844559         8.4255043917
          28
ANG Step:       1407 Time:    29083.2476768989
C          1.7611253837        14.0271231480         9.6009255329
C          3.0830561031        13.7828786145         9.2038787077
C          3.5517999261        12.4359856993         8.9944344423
C          2.6817571851        11.3506160188         8.9916544217
C          1.2673623158        11.6321119180         9.1973200188
C          0.8942221617        12.9212408987         9.5705810913
H          4.5806406858        12.1836904882         8.8248388901
H          0.5305774645        10.8659698734         9.0090547290
O          1.3735776099        15.3091368573         9.8487731485
H          0.6108259244        15.3222628169        10.4328924907
O         -0.4036394646        13.2510970956         9.8246578765
O          3.9195765264        14.8001248120         8.9571817108
C          3.1388741151         9.9769499784         8.7057909664
C          2.6787141724         8.9697068639         9.6218222217
H          4.1350624556         9.9461973045         8.2788145365
C          1.7430106253         9.1557601670        10.6691209905
H          3.1013155224         8.0117494183         9.5017676189
O          1.2400912145         8.0287868112        11.2353805507
H          0.8566593861         8.2713406672        12.1165118364
O          1.2859431329        10.2650842203        11.1708097672
C         -1.0740627105        12.3056721222        10.7830545882
H         -2.0485414637        12.0767228802        10.3796014990
H         -0.4114963922        11.4747775599        10.9241924371
H         -1.2109861000        12.8423204173        11.6759371808
C          3.6870405762        16.3327642862         9.0726080440
H          3.4893058002        16.4631108795        10.1367094107
H          4.6687641095        16.6261920429         8.7714319647
H          2.8479350612        16.5824866497         8.4294170611
          28
ANG Step:       1413 Time:    29207.2700550520
C          1.7241295299        14.0186357704         9.6185894007
C          3.1080479355        13.7870306962         9.2028599210
C          3.5508858583        12.4367747201         8.9881848600
C          2.6762791757        11.3628950592         8.9765651862
C          1.2922212667        11.6414638405         9.1824167927
C          0.9039835168        12.9084993953         9.5734470234
H          4.5816769582        12.2972478220         8.7062141102
H          0.6064631319        10.8333435271         8.9661070453
O          1.3968443618        15.3229143040         9.8648632198
H          0.5816748741        15.3335183444        10.4169996457
O         -0.4173026090        13.2756878498         9.8289002725
O          3.9298647569        14.7815119139         8.9529026878
C          3.1234502484         9.9836063160         8.7331794845
C          2.7016002413         8.9589963030         9.6165774052
H          4.0764870409         9.8704038059         8.2346458061
C          1.7398994116         9.1874321300        10.6561707132
H          3.0461404479         7.9545934822         9.4394461457
O          1.2459777673         8.0568570532        11.2512308214
H          0.9167285010         8.3060491134        12.1273374399
O          1.2796567763        10.2726723955        11.1520728693
C         -1.0767113398        12.2964977080        10.7731399106
H         -2.1115955444        12.0584947624        10.4310214290
H         -0.3794714699        11.4240403925        10.9147240986
H         -1.2080054840        12.8377747111        11.7096523438
C          3.6640331978        16.3156148679         9.0994272439
H          3.4633735372        16.4948032647        10.1098559802
H          4.6469465006        16.5879601538         8.7597170613
H          2.8559113229        16.6056287925         8.4149468295
          28
ANG Step:       1436 Time:    29682.6891713055
C          1.7746699650        14.0117897171         9.6328717555
C          3.0590022345        13.7872119064         9.2192065312
C          3.5704420894        12.5015666625         8.9208351859
C          2.7277541716        11.4073220706         8.9099369687
C          1.3519052067        11.6674132299         9.1492702285
C          0.8243708644        12.9660018880         9.5930352875
H          4.5764792713        12.4469174706         8.4986558321
H          0.6119224386        10.9436724574         8.8185197135
O          1.4329887555        15.3273472030         9.9513838135
H          0.4753270031        15.3342994624        10.1595377518
O         -0.4719890930        13.2703220373         9.8767467113
O          3.9804752268        14.7815765803         8.9529314183
C          3.1307773061         9.9898620522         8.8267267767
C          2.6896444003         8.9697839284         9.6328813059
H          3.6628550609         9.7133603415         7.9167212167
C          1.7559438198         9.2204794994        10.6283945372
H          2.8622977710         7.9131002982         9.3769385075
O          1.2840235923         8.1239365768        11.3067605891
H          0.9797246236         8.5082674570        12.1267022132
O          1.2789716411        10.3440442485        11.0546610670
C         -1.0843953157        12.3210359120        10.7456517152
H         -2.0820267396        12.0643972411        10.3153818211
H         -0.5200971324        11.3488784996        10.8103440804
H         -1.1146275044        12.7287689964        11.7763979012
C          3.6455181138        16.1532291582         9.1410662366
H          3.3815930232        16.4624417323        10.1211190518
H          4.5238817823        16.7558935968         8.8878484939
H          2.8376353450        16.4628421944         8.4692206132
          28
ANG Step:       1447 Time:    29910.0635312528
C          1.7807014527        14.0450055609         9.6441019241
C          3.0673143352        13.7986981328         9.1989593955
C          3.5787806927        12.5375077206         8.8619856823
C          2.7786227241        11.4236289039         8.8989596271
C          1.3123520951        11.7148289500         9.1614954190
C          0.8211179165        13.0002777625         9.5864593196
H          4.6162741346        12.3955555878         8.5933952124
H          0.5787755673        11.0141973986         8.7825844154
O          1.4232234572        15.2967943080        10.0006372716
H          0.4436234550        15.3029281222        10.0089970138
O         -0.4776702888        13.2434025365         9.8973892864
O          3.9900554593        14.7819447676         8.9730355987
C          3.1796098312         9.9988334430         8.8071892903
C          2.6355341772         8.9863982146         9.6523589630
H          3.4911606004         9.7246746884         7.7949793938
C          1.7579292817         9.2080720116        10.6497730980
H          2.8699778450         7.9745449003         9.4058912358
O          1.3069306428         8.1442172260        11.3380770980
H          0.8815534341         8.5386340019        12.1328429474
O          1.2913964114        10.3916017586        10.9944621026