          28
ANG Step:        398 Time:     8226.8177508214
C          4.4400567223        11.9415548423         2.2022039388
C          3.9370840227        11.3016843207         3.3487948055
C          4.8020891375        11.1396254089         4.5642259213
C          6.1065763976        11.5982323889         4.5340078620
C          6.6206991158        12.2311136273         3.3768285886
C          5.7394234474        12.5082772310         2.2382413969
H          4.3330977240        10.8348897824         5.4873505700
H          7.6423809181        12.4071167805         3.2270887181
O          3.8070119616        12.0344845468         1.0110713103
H          4.5170360191        12.4634766809         0.4902518986
O          6.1697490527        13.2895800329         1.2090805583
O          2.6408998990        10.9118310820         3.1999233534
C          6.8444187785        11.6425146033         5.7972769535
C          7.9089091447        12.4691624302         6.1573229045
H          6.6050296729        10.9371848047         6.5782242770
C          8.6000831990        13.5523979221         5.4301887363
H          8.2624988887        12.4024903785         7.1532284258
O          9.6536995319        14.0774412081         6.2117642468
H          9.9756398129        14.7975130929         5.6405410286
O          8.4667079833        14.0095195515         4.2728409565
C          7.3214209998        14.1677639760         1.5171404141
H          7.3806086030        14.8046152045         0.6458112803
H          7.0188441497        14.6972299497         2.4243286345
H          8.2461364450        13.6185090702         1.7186463603
C          1.9770789973         9.9991956647         4.1703105230
H          2.2875374585         8.9570150679         4.0028361300
H          2.1760189613        10.2919867070         5.2116651087
H          0.9128147760        10.1679008994         3.9448878324
          28
ANG Step:        405 Time:     8371.5105253334
C          4.4509124642        11.9707278347         2.2151087461
C          3.9334212829        11.2958088587         3.3848800631
C          4.8182646384        11.1854830407         4.5606296847
C          6.1191271722        11.5846985351         4.5464512003
C          6.5946750194        12.2035937121         3.3417213270
C          5.7125460507        12.4958523784         2.2558294017
H          4.3541142817        10.9213738651         5.5186102215
H          7.6633063804        12.3602389236         3.2355899391
O          3.8134692496        12.0436453569         1.0359533857
H          4.4829125905        12.4479909298         0.4290644498
O          6.1526841455        13.2808757419         1.2029395916
O          2.6688427231        10.9308468546         3.1925567094
C          6.8564237705        11.6429332208         5.7775636765
C          7.9207927356        12.4976551812         6.1786471103
H          6.5262610308        10.8916822927         6.5081259118
C          8.6148474204        13.5737561700         5.4264822635
H          8.2393648989        12.3670533042         7.1990347550
O          9.6490939988        14.0648588187         6.2142155743
H          9.9412262387        14.8010910577         5.6475039740
O          8.4561606863        13.9964620409         4.2910341861
C          7.2946663746        14.1444183752         1.5036225248
H          7.3704898506        14.8320797564         0.6567905871
H          7.0436703064        14.7142597910         2.4023582173
H          8.2702154712        13.6471376632         1.6716293809
C          1.9959369022        10.0110145433         4.1360941332
H          2.3051787018         8.9456830077         4.0102587858
H          2.2281386967        10.2846889213         5.1856286718
H          0.9238597349        10.1076138310         3.9192357137
          28
ANG Step:        416 Time:     8598.8848852807
C          4.4594953862        12.0005731616         2.2416838095
C          3.9567802832        11.3047364997         3.4099431299
C          4.7926073893        11.2306261123         4.5568715666
C          6.1344073364        11.5902949917         4.5453599404
C          6.5559634711        12.1548565017         3.2925993166
C          5.7239042975        12.4958847634         2.2970300058
H          4.3335011136        10.7923775737         5.4377563650
H          7.5771083348        12.4335714294         3.2063590238
O          3.8195198530        12.0600673791         1.0571456232
H          4.5415628832        12.4728844535         0.5497804648
O          6.1321726204        13.2577638755         1.1986719376
O          2.6973527964        10.9365825879         3.2016996214
C          6.8997978429        11.6459435053         5.7809071662
C          7.9157387589        12.5395494160         6.1592624141
H          6.6742051835        10.9865796793         6.6112990025
C          8.6222268440        13.5606162510         5.4665685060
H          8.2953591178        12.4239111710         7.1803353668
O          9.6430857111        14.0564145355         6.2096478774
H          9.9914138060        14.7712907299         5.6471569770
O          8.4391091955        13.9885038302         4.2989531049
C          7.2561613379        14.1194809788         1.4943577202
H          7.3791241105        14.7754359988         0.6370881833
H          6.9884790915        14.6641667409         2.4091619395
H          8.1944413475        13.6068347329         1.7475764233
C          2.0196744658        10.0302323574         4.1042780196
H          2.2769564828         8.9734976896         3.9876054475
H          2.1444699416        10.2879612652         5.1778072866
H          0.9448341954        10.2166503557         3.9478624594
          28
ANG Step:        427 Time:     8826.2592452280
C          4.4496117871        12.0150826652         2.2758527533
C          3.9963445087        11.3399175712         3.3936589243
C          4.7488285197        11.2473689374         4.5677628528
C          6.1216573380        11.6116986495         4.5326225173
C          6.5650141249        12.1001203542         3.2901037661
C          5.7478268686        12.5206157322         2.3066807575
H          4.3441411926        10.6637828487         5.3994333235
H          7.5784682152        12.5138138440         3.2238449937
O          3.8206546276        12.0773875226         1.0783768762
H          4.4747667389        12.5558549526         0.4834721703
O          6.1159872360        13.2207706705         1.2020370490
O          2.7168592384        10.9217037951         3.2282223192
C          6.9674612945        11.6560472785         5.8022837137
C          7.9017657312        12.5684509548         6.1390204559
H          6.7179762041        11.0088156045         6.6433501870
C          8.6129014131        13.5372667495         5.4922151500
H          8.3228883489        12.4487782119         7.1444226325
O          9.6477681834        14.0597703652         6.2074122805
H         10.0948098223        14.7392360959         5.6713448168
O          8.4231502557        13.9844200908         4.3061059186
C          7.2096588044        14.1036118374         1.4936279149
H          7.3803781872        14.7043024671         0.5987941370
H          6.9731376182        14.6969804604         2.3799072343
H          8.0913444105        13.4971087891         1.7340867471
C          2.0291854170        10.0654360186         4.0920528567
H          2.2948772447         9.0229683186         3.8484261653
H          2.1684705303        10.3241843590         5.1447300939
H          0.9820144622        10.2719455393         3.8688253672
          28
ANG Step:        438 Time:     9053.6336051754
C          4.4626579982        12.0485369922         2.2679614655
C          3.9922197823        11.3646227511         3.3801187972
C          4.7420380673        11.2416200097         4.5930833874
C          6.0784039689        11.6272805945         4.5532884761
C          6.6287908919        12.0745982715         3.3153771424
C          5.7432274963        12.5313007117         2.2988163893
H          4.3574166671        10.6656211256         5.4107800302
H          7.6386906379        12.4441578359         3.3478235554
O          3.8113302388        12.0959620596         1.0991904572
H          4.2852605916        12.6066226907         0.4591910155
O          6.1033592087        13.1855839611         1.2054208442
O          2.7489277651        10.9152706363         3.2450193708
C          6.9965802132        11.6413053034         5.7998686784
C          7.9030359472        12.5834805605         6.1626900521
H          6.6457910027        10.9438845136         6.5500581984
C          8.6101373262        13.5589577199         5.4541205218
H          8.3144674374        12.4100867319         7.1795370288
O          9.6632564160        14.0663200288         6.2176184213
H         10.1315914428        14.6844546624         5.6401828925
O          8.4094850316        13.9785706187         4.3201855739
C          7.1713177044        14.0884677745         1.4867477392
H          7.3632091430        14.6462132331         0.5674545974
H          6.9798863602        14.7752484785         2.3191924943
H          8.0501598415        13.4748128622         1.6629047498
C          2.0269533286        10.0992818610         4.0890321854
H          2.2968696661         9.0777650807         3.7912453880
H          2.2639073437        10.3073355563         5.1484144675
H          0.9800454803        10.2367756924         3.7777080329
          28
ANG Step:        449 Time:     9281.0079651227
C          4.4865900619        12.0852062710         2.2391740058
C          3.9669901849        11.3753312430         3.3948457374
C          4.7612170719        11.2279249158         4.6057286918
C          6.0575379220        11.6417930309         4.5997314748
C          6.6712391669        12.0853244242         3.3447886794
C          5.7622713386        12.5074009885         2.3224578835
H          4.3182786211        10.7583513728         5.5049465855
H          7.7482101067        12.2834898925         3.4202324686
O          3.7700025902        12.1085281800         1.1169599493
H          4.2114846257        12.7211006481         0.4662825368
O          6.0979770467        13.1681812281         1.1972452876
O          2.7820966583        10.9282097543         3.2334970490
C          6.9678182940        11.6012331868         5.7685317768
C          7.9178073516        12.5829388336         6.2171796064
H          6.6125811817        10.8550513822         6.4870708721
C          8.6185507185        13.5874484603         5.4428134343
H          8.2994130564        12.4028012577         7.2077715826
O          9.6810348744        14.0742503391         6.2260194564
H         10.1476181049        14.6496769289         5.5878584480
O          8.3950058185        13.9873482081         4.3026449504
C          7.1559815495        14.0791157260         1.4550814032
H          7.2949449019        14.6223234183         0.5214762704
H          6.9596633207        14.7813897167         2.2714638009
H          8.1041145675        13.5472998811         1.6625162627
C          2.0230274564        10.1112431713         4.0927061863
H          2.2877803616         9.0645606715         3.8706507244
H          2.2472272073        10.2448037734         5.1547893798
H          0.9717454761        10.2330254379         3.8302749959
          28
ANG Step:        459 Time:     9487.7119287112
C          4.4840474241        12.0827602671         2.2559403743
C          3.9859796689        11.4005698479         3.4130389960
C          4.7652574188        11.2134108108         4.6091118325
C          6.0827381900        11.6613436243         4.6221210117
C          6.6720767655        12.1072217480         3.3875817071
C          5.8182086480        12.4765925840         2.3486236173
H          4.3004141927        10.9056485048         5.5255742455
H          7.7447276181        12.1347213301         3.3340535468
O          3.7184958456        12.1272278953         1.1202706172
H          4.1623061657        12.7759876411         0.5627151212
O          6.1081322294        13.1615966062         1.1870079448
O          2.7760868571        10.9365295291         3.2086099604
C          6.9379235132        11.5780970027         5.7618287728
C          7.9110996756        12.5562016779         6.2423338098
H          6.6814037170        10.8100577163         6.4894890158
C          8.6192238004        13.5920557871         5.4809228395
H          8.3235358585        12.4131708631         7.2654500301
O          9.6949243660        14.0854483728         6.2169455149
H         10.1865639627        14.6499595824         5.5964871520
O          8.3854946352        14.0053213319         4.2724856240
C          7.1644833033        14.0829532378         1.4052356448
H          7.2295117389        14.6448399546         0.4677208564
H          6.8997355277        14.7409535491         2.2510343370
H          8.1255179685        13.6324552822         1.6827529044
C          2.0271642858        10.0984199508         4.1018507950
H          2.2783169458         9.0353913165         3.9362932137
H          2.1789016722        10.2856736277         5.1959917874
H          0.9531689547        10.3038074783         3.9179472784
          28
ANG Step:        469 Time:     9694.4158922996
C          4.4794402936        12.0604418871         2.2973480117
C          4.0130892621        11.4219434438         3.4230107994
C          4.7737557203        11.2168354339         4.6045671912
C          6.1065379658        11.6701686908         4.6212010398
C          6.6613019801        12.1287606721         3.4280330027
C          5.8489472845        12.4537820183         2.3403731745
H          4.3125180838        10.8831533396         5.5151533075
H          7.7434708081        12.1543893265         3.3708792724
O          3.6761337156        12.1495422872         1.1339002134
H          4.1661954103        12.7562485046         0.5577486316
O          6.1344177691        13.1483772354         1.1857858912
O          2.7473126618        10.9354364993         3.1905386168
C          6.9399281702        11.5834216957         5.7999566689
C          7.8954571548        12.5212833275         6.2362630634
H          6.6594962832        10.8123955437         6.4902877369
C          8.6009738121        13.5871234183         5.5034188749
H          8.3239522356        12.4173325002         7.2684913454
O          9.7016207349        14.0951011061         6.1988179697
H         10.1835960475        14.6480182586         5.5847225340
O          8.3849650832        14.0135815137         4.2758621128
C          7.1770752098        14.1046899714         1.3602762952
H          7.2319516706        14.6429657048         0.4588140331
H          6.9128681471        14.7438185583         2.2590256147
H          8.1211229445        13.6252537102         1.6904462645
C          2.0289035817        10.0860738866         4.1240751459
H          2.2860115154         9.0294701328         3.9339368762
H          2.1809120325        10.2581892696         5.2178117954
H          0.9411373976        10.2915172727         3.9151815946
          28
ANG Step:        479 Time:     9901.1198558881
C          4.4931650442        12.0483343391         2.3076126752
C          3.9954435968        11.4103357428         3.4285348717
C          4.7984609775        11.2375161564         4.6017281586
C          6.1073607205        11.6593408803         4.6275361122
C          6.6649748916        12.1557880344         3.4426319588
C          5.8289502236        12.4413179786         2.3023719485
H          4.3626544509        10.6994501848         5.4660993361
H          7.7293515801        12.3435816090         3.5269540608
O          3.6548808361        12.1731183922         1.1716777265
H          4.2116058904        12.6398926312         0.4924346571
O          6.1712417532        13.1264830387         1.1931353579
O          2.7240708157        10.9324972033         3.1949158367
C          6.9503199663        11.6019229174         5.8544030221
C          7.9000479985        12.5062553075         6.2169925045
H          6.5432098204        10.8403032765         6.5465270363
C          8.5693738954        13.5757779893         5.4958330211
H          8.2877006506        12.3978671784         7.2016752090
O          9.6953927795        14.0968032572         6.1801659115
H         10.1317477802        14.6600078984         5.4934382169
O          8.3896839829        14.0086328161         4.3165043623
C          7.1921100400        14.1276313186         1.3548119414
H          7.3034200528        14.6743713076         0.3680006750
H          7.0062946158        14.7808410033         2.1815172462
H          8.1072611198        13.5881326526         1.6158610064
C          2.0239907079        10.0780640635         4.1448224675
H          2.3080229617         9.0431742028         3.8818468073
H          2.2592144204        10.1890950900         5.2128536634
H          0.9842909417        10.1728594351         3.8776367448
          28
ANG Step:        490 Time:    10128.4942158354
C          4.4982530105        12.0396956036         2.2788006682
C          3.9462647685        11.3729910070         3.4263712686
C          4.8079785022        11.2465634674         4.6071862470
C          6.1166009145        11.6479627721         4.6460101679
C          6.6615111357        12.1940269514         3.4361104941
C          5.8032486587        12.4345073807         2.2784001104
H          4.4532676932        10.5771400855         5.3673010727
H          7.6762689879        12.5785313417         3.4791263442
O          3.6539948267        12.2024297369         1.2300933768
H          4.2022035113        12.4882615318         0.5061266528
O          6.2162718668        13.1072044832         1.1951978244
O          2.7109510321        10.9330446380         3.2266652388
C          6.9234145356        11.6036329889         5.9014877147
C          7.9306089421        12.5153394752         6.1961785837
H          6.5470122710        10.9686878029         6.6784262673
C          8.5463784292        13.5565318086         5.4935019834
H          8.3280197240        12.3542113006         7.2331367656
O          9.6766470274        14.0928924114         6.1543015164
H         10.0222735162        14.6564068509         5.4509725679
O          8.3900539314        14.0027167186         4.3646801426
C          7.2264489837        14.1407633010         1.3394356454
H          7.3245562081        14.6201816190         0.4099119794
H          7.0139576133        14.9023614111         2.1416835322
H          8.1880475289        13.6201900165         1.4773837973
C          2.0364690797        10.0538242933         4.1469056643
H          2.3465548340         9.0530389325         3.8382027958
H          2.3198232386        10.2757203950         5.1872227136
H          0.9465169955        10.1237799599         3.9165843283
          28
ANG Step:        500 Time:    10335.1981794239
C          4.4775562678        12.0158662539         2.2652292783
C          3.9352924887        11.3474569122         3.4142468007
C          4.7900820134        11.2279013755         4.6007049511
C          6.1402707992        11.6529898931         4.6542415293
C          6.6338413323        12.2297062510         3.4210833667
C          5.8077253968        12.4352221713         2.2975225738
H          4.4798385505        10.5359106548         5.4033510579
H          7.5966731729        12.7257172298         3.3249496864
O          3.6532474716        12.2309125362         1.2768452445
H          4.1934696720        12.4099746735         0.4592913547
O          6.2586859864        13.1009075856         1.1844809305
O          2.6962930108        10.9355727141         3.2641685013
C          6.8878694060        11.6113997867         5.9241459277
C          7.9540873262        12.5055553432         6.2105418702
H          6.5657441103        11.0514271625         6.8292643180
C          8.5620528471        13.5402694198         5.5195761709
H          8.3928008354        12.3736156977         7.1689182840
O          9.6516442733        14.0830171746         6.1345085235
H          9.9623686288        14.6987257270         5.4402219597
O          8.3764919543        14.0107761390         4.3762825312
C          7.2672786186        14.1379975617         1.3303613362
H          7.2500808651        14.6341070173         0.3015629965
H          7.0141201244        14.8605862698         2.0814888455
H          8.2777957599        13.7207696415         1.4704215679
C          2.0547213992        10.0287826596         4.1366138795
H          2.3956200381         8.9991826164         3.8862631295
H          2.2938769286        10.3408542336         5.1738571391
H          0.9788511356        10.1581914380         4.0236817904
          28
ANG Step:        644 Time:    13311.7352550980
C          4.4422566772        12.1286528998         2.3897446107
C          3.9714778464        11.4012571642         3.4957267278
C          4.7802211512        11.2732623804         4.6616010402
C          6.1736057919        11.6571109688         4.6940313488
C          6.7108003887        12.2331265873         3.4545970631
C          5.8142981755        12.4805408098         2.3704321287
H          4.3794662557        10.7920798342         5.5567323681
H          7.7790374801        12.3937549145         3.3748008718
O          3.6544829792        12.4410381071         1.2976207641
H          4.2744641350        12.9145323721         0.6989770185
O          6.2105760155        13.0016392856         1.1678445918
O          2.7689697489        10.8514507667         3.3762485651
C          6.8482326017        11.6450932997         5.9842494891
C          7.8930905956        12.4608432272         6.3227651858
H          6.4757175242        10.9746969150         6.7769978792
C          8.4656158560        13.5325936912         5.6165537504
H          8.4295017026        12.3040006756         7.2326980532
O          9.6725407708        13.9464613562         6.0123819844
H          9.9016141854        14.6769435934         5.4281203705
O          7.9105153897        14.1840911021         4.7107566579
C          7.3957631767        13.7652029782         1.2550877085
H          7.4168797026        14.3827028114         0.3413137172
H          7.3127094906        14.3809755604         2.1570588619
H          8.2747764010        13.1178525329         1.3842041262
C          2.4262995877         9.9468513452         4.4150008251
H          3.2738042614         9.2531870603         4.5661147533
H          2.1743257252        10.4689800006         5.3642340022
H          1.5000007402         9.4567936763         4.0985397371
          28
ANG Step:        655 Time:    13539.1096150453
C          4.4663214489        12.1207139256         2.3916114608
C          4.0001271683        11.3897717430         3.4878059190
C          4.7818069562        11.3567513902         4.6464797264
C          6.1349609946        11.6519118104         4.6611521077
C          6.6886591542        12.1918358111         3.4933305409
C          5.7956601870        12.4883297070         2.4170163000
H          4.3969105456        10.8383195632         5.5286251950
H          7.7447217001        12.3994420176         3.3806933996
O          3.6604336074        12.4438039423         1.3351388934
H          4.2339102956        12.8750104347         0.6650483089
O          6.2121938398        13.0108808419         1.1647862290
O          2.7858722508        10.8366816245         3.3904385840
C          6.8768764583        11.6099380034         5.9521425817
C          7.8621879165        12.4575037365         6.3595859123
H          6.4725438407        10.9358706508         6.7079713783
C          8.4391671225        13.5598142893         5.6272262975
H          8.3981855009        12.2356995747         7.2879996682
O          9.7285797714        13.9370241781         6.0061519063
H          9.8735836910        14.7169646013         5.4325601177
O          7.8542024648        14.1986834132         4.7170624108
C          7.4066084469        13.7696397869         1.2372678317
H          7.4791266987        14.3622362977         0.3037489917
H          7.4293967943        14.4313714794         2.1150297723
H          8.2681726976        13.0918176690         1.2896800052
C          2.4088439164         9.9442806293         4.4344479800
H          3.2317746713         9.2013070360         4.6032732800
H          2.2263968870        10.4741738959         5.4027515942
H          1.5492847454         9.3885468516         4.0577888948
          28
ANG Step:        665 Time:    13745.8135786338
C          4.4633547151        12.1126007411         2.3802659843
C          4.0217308919        11.3861301188         3.4880373503
C          4.7702236628        11.4019110837         4.6325285000
C          6.1238835362        11.6813961289         4.6429406277
C          6.6629076472        12.1548220764         3.5158611026
C          5.8193279088        12.4993593576         2.4244360013
H          4.3676188672        10.9518748321         5.5112946262
H          7.6990080548        12.3855378532         3.4227895728
O          3.6688666498        12.4405890466         1.3741713597
H          4.1964093144        12.8515741800         0.6861071239
O          6.2026504742        13.0123805072         1.1964764539
O          2.7895355882        10.8219328893         3.4039068048
C          6.8881822441        11.5632868800         5.9177614272
C          7.8663939851        12.4664054264         6.3880616774
H          6.4726584691        10.8669546187         6.6496697192
C          8.4020930326        13.5865408328         5.6371732642
H          8.3442996673        12.1936487231         7.3382953795
O          9.7707744308        13.9271547234         5.9998617834
H          9.9029658961        14.7245933698         5.4717650881
O          7.8119078104        14.2147916620         4.7210473944
C          7.4349572399        13.7816801688         1.2160417403
H          7.4712803966        14.3515680054         0.2677787726
H          7.4477397750        14.4307191576         2.0827139656
H          8.2820526328        13.0922015233         1.2400622152
C          2.4017256920         9.9316701362         4.4507056544
H          3.1751151069         9.1975621310         4.6290391316
H          2.1663072453        10.4741063672         5.3706447979
H          1.5061874828         9.4286776145         4.0937700088
          28
ANG Step:        677 Time:    13993.8583349400
C          4.4922087428        12.1118940133         2.3763253221
C          4.0005625544        11.3859405207         3.4772778183
C          4.7675858437        11.4206088177         4.6538212601
C          6.0984021033        11.7139885815         4.6958754409
C          6.6558975347        12.1512150081         3.4580288549
C          5.8421240006        12.4958440502         2.4069007595
H          4.2518912433        11.1341654401         5.6038049606
H          7.7206864511        12.3293846167         3.4816817344
O          3.6600029930        12.4321012271         1.4065004392
H          4.2078097316        12.8543210391         0.6928989854
O          6.2045514012        13.0242497260         1.2491247333
O          2.8001723734        10.8074421662         3.4186484838
C          6.9105157468        11.5219346384         5.8915387449
C          7.8680745207        12.4650835978         6.3944812827
H          6.5209096800        10.7499303206         6.5311048017
C          8.3715265195        13.6177084291         5.6649703486
H          8.2936541677        12.1855840860         7.3842457937
O          9.7840374545        13.9097048970         5.9840038241
H          9.9918676070        14.7616440967         5.5355165626
O          7.7739940046        14.2302393834         4.7329738741
C          7.4639734310        13.7867905002         1.1785068764
H          7.4317917387        14.3350396747         0.2463375174
H          7.5090296251        14.4769305070         2.0691589783
H          8.3222467031        13.1093026325         1.1807724302
C          2.3821950852         9.9160829828         4.4684680934
H          3.1435709811         9.1466943624         4.6947571300
H          2.0945500722        10.4967004010         5.3721889742
H          1.4303260334         9.4965969064         4.1320230374
          28
ANG Step:        687 Time:    14200.5622985285
C          4.5240870967        12.1073196704         2.3936143458
C          3.9767574755        11.3960114124         3.4787350664
C          4.7576338613        11.4140418418         4.7148849152
C          6.0714889613        11.7363859931         4.7373299444
C          6.6736478638        12.1612177060         3.4099621729
C          5.8417396151        12.4748259167         2.3922831779
H          4.2250482518        11.2472704291         5.6145327579
H          7.7428660575        12.2813125148         3.4115274509
O          3.6443746957        12.4286401216         1.4068634347
H          4.1820349795        12.8488956728         0.7271105090
O          6.2313845355        13.0571376140         1.2656886719
O          2.8088515756        10.7936783549         3.4258197982
C          6.9463706104        11.5211647232         5.8950918807
C          7.8539583252        12.4428907542         6.3807071483
H          6.6426702532        10.6452107713         6.4925430174
C          8.3647305034        13.6448305178         5.6893634889
H          8.3260211342        12.2410252266         7.3351559596
O          9.7612702636        13.8919641095         5.9662963229
H         10.0010513390        14.7457562375         5.5882538484
O          7.7553974881        14.2351964130         4.7556371525