          28
ANG Step:       1535 Time:    31729.0584108314
C          1.7640386303        14.0186569264         9.6399673149
C          3.0754569652        13.8713545741         9.2215124406
C          3.4436447554        12.6038051075         8.7483028788
C          2.6449708620        11.4697474125         8.7245266203
C          1.2326538243        11.6451804623         9.0830609516
C          0.8941122425        12.9450197455         9.5333154453
H          4.4745801267        12.4686537412         8.6300226881
H          0.4240529512        10.9531880525         8.8378380497
O          1.2813936676        15.1520631271        10.2336979824
H          0.5320757409        14.8988566360        10.7882292593
O         -0.3057296715        13.2707321601         9.9431299263
O          4.0915263517        14.8091445248         9.0938458392
C          3.0727015544         9.9857697034         8.5564667901
C          2.6226257045         9.0890939555         9.5782525652
H          3.9852166656         9.7707169285         8.0272630033
C          1.8024365846         9.4430298750        10.6277084603
H          2.9935742357         8.1265177484         9.7227661360
O          1.4414310942         8.4406627976        11.4935893826
H          0.8799947622         8.8615613107        12.2075152209
O          1.2777022552        10.5650260129        10.9864404240
C         -1.2145853907        12.3648885789        10.6351702889
H         -2.2035125666        12.6723856499        10.3129683228
H         -0.9443141074        11.3234540608        10.4308127172
H         -1.0489791718        12.6077517936        11.6616308721
C          3.9181427439        16.2201910417         9.2467376034
H          3.7541490666        16.5866984520        10.2802061374
H          4.9066384645        16.5191044082         8.9124745404
H          3.1145297465        16.5995059571         8.5590240330
          28
ANG Step:       1556 Time:    32163.1367343672
C          1.7876137826        13.9960669766         9.7005184730
C          3.0702264383        13.8660940420         9.2318934794
C          3.4238825337        12.5333590587         8.7212529442
C          2.6139102161        11.4271472021         8.6783338534
C          1.2749789243        11.6701868037         9.0566125033
C          0.8782925491        12.9367203873         9.4992413871
H          4.4473243314        12.4421110105         8.5095534342
H          0.5888327279        10.8453076872         8.9265216494
O          1.3409213160        15.1533611621        10.2306701588
H          0.6013959813        14.8635538020        10.8064888212
O         -0.3615357184        13.3328411057         9.9594895358
O          4.0218471067        14.7790326282         9.1416172011
C          3.0852949904        10.0591480226         8.5678649309
C          2.6666561099         9.1578269591         9.5393639552
H          3.6899019799         9.7769510197         7.7260736401
C          1.7651636203         9.5067810741        10.6664112366
H          3.0580696852         8.1861997499         9.5351809132
O          1.4649663452         8.4103105972        11.5257219464
H          1.3031896374         8.9280072930        12.3495408251
O          1.2696489799        10.6716495517        10.9685351158
C         -1.2060334385        12.3695149780        10.6068675287
H         -2.2256918957        12.6358488058        10.3323494322
H         -1.0271120799        11.3189007969        10.3211610036
H         -1.1203458867        12.4087599530        11.6904099075
C          3.9903775579        16.2627580515         9.2729234486
H          3.7391254791        16.5088349558        10.3200841024
H          4.9369351120        16.6917545600         8.9392255864
H          3.1684938973        16.6424464868         8.6041887320
          28
ANG Step:       1557 Time:    32183.8071307261
C          1.7887874478        13.9960464807         9.7027620698
C          3.0695100627        13.8664016924         9.2301823116
C          3.4280138107        12.5297741813         8.7203018762
C          2.6090059410        11.4247267201         8.6771821983
C          1.2780329465        11.6715251195         9.0551494041
C          0.8780695634        12.9366871829         9.4986537632
H          4.4538543292        12.4393566572         8.4934443734
H          0.5901804221        10.8479875373         8.9187067963
O          1.3440516291        15.1542660912        10.2313016858
H          0.5959609215        14.8737191721        10.8059334090
O         -0.3664846007        13.3345838514         9.9608469958
O          4.0195828150        14.7774824595         9.1442128873
C          3.0866589392        10.0632734629         8.5678556193
C          2.6656571757         9.1632928072         9.5422623328
H          3.6729633539         9.7733424757         7.7163433938
C          1.7670753035         9.5058193666        10.6647486187
H          3.0625431747         8.1839929269         9.5117967388
O          1.4662923206         8.4120956644        11.5272854758
H          1.3160550547         8.9053037023        12.3601006366
O          1.2694704259        10.6763299808        10.9680762553
C         -1.2052217034        12.3716902275        10.6069016075
H         -2.2290851905        12.6242250137        10.3301995041
H         -1.0351804437        11.3185519471        10.3156354080
H         -1.1215199699        12.3925967128        11.6733380086
C          3.9913167142        16.2620852418         9.2741141793
H          3.7450647091        16.5048370823        10.3099174182
H          4.9379526979        16.6959794416         8.9496238634
H          3.1691476737        16.6498727194         8.6110537015
          28
ANG Step:       1579 Time:    32638.5558506207
C          1.7608740193        13.9827878473         9.7245297550
C          3.0770584206        13.7957927220         9.1417292374
C          3.5189826259        12.5046317880         8.7020637866
C          2.6215036805        11.4956829268         8.6555268012
C          1.2343654319        11.6982717361         9.0546460865
C          0.8472227410        13.0016172303         9.5411801022
H          4.4813832167        12.3691791438         8.2767121245
H          0.4479778801        11.0634332648         8.6439992191
O          1.4176510898        15.1985802701        10.2669585925
H          0.4884717742        15.1327547437        10.5927092161
O         -0.4348063006        13.3456835352         9.9670831738
O          4.0308771316        14.7819332879         9.1852179184
C          3.0772548729        10.0939254541         8.5726984388
C          2.6497357600         9.2560630142         9.5841509072
H          3.3998695549         9.6592745219         7.6444580764
C          1.8033159675         9.5244677679        10.6810056124
H          2.8490240405         8.2189867674         9.4228778438
O          1.5134069344         8.4737727494        11.5243481975
H          1.5105636982         8.6354388815        12.4590248155
O          1.3017189922        10.6895983933        10.9421333299
C         -1.2431183060        12.3505250785        10.5792351979
H         -2.2870873018        12.6285806266        10.3982026166
H         -0.9705959537        11.3893088130        10.1008734142
H         -1.0153919017        12.3043507063        11.6169763243
C          3.9586871549        16.1982511242         9.3169859240
H          3.7989094445        16.4766641476        10.3565419797
H          4.9901010998        16.4455311412         9.0497173508
H          3.1920365727        16.7116661803         8.6711460170
          28
ANG Step:       1600 Time:    33072.6341741565
C          1.7933656417        14.0221218470         9.6846174296
C          3.0927933197        13.8308357513         9.1217977423
C          3.5631998652        12.5809454999         8.6577359289
C          2.6251724956        11.5424836147         8.6752005237
C          1.1822875023        11.8184548878         9.0549040162
C          0.7784472020        13.0187745593         9.6105961203
H          4.6075754890        12.4419763685         8.4630478161
H          0.4752523867        11.1048672163         8.6323634999
O          1.5039486815        15.2351423862        10.2952132472
H          0.5283162125        15.2562910100        10.2531238628
O         -0.4680500642        13.3616203326         9.9386170858
O          4.0525111749        14.7095004656         9.1892516677
C          2.9977523584        10.0976586694         8.5584485939
C          2.6170823233         9.2312738947         9.6107774676
H          3.3666884394         9.6835827203         7.6350606983
C          1.8775704851         9.5771181296        10.7064491991
H          2.8116347151         8.1850165328         9.5984158667
O          1.5696414545         8.5017462437        11.4989696833
H          1.5525766393         8.9603390682        12.3488659992
O          1.3234718545        10.6908503208        10.9253994580
C         -1.2755047701        12.2956533928        10.5537009331
H         -2.3043060454        12.6584232383        10.5027424738
H         -1.2033984739        11.2776328644        10.0894285613
H         -0.9799172136        12.1938242333        11.5756927433
C          3.9264248857        16.1196585890         9.3910295464
H          3.6822966237        16.4196697775        10.4097199052
H          4.8898145786        16.5488275093         9.0690501897
H          3.1650169789        16.5162974111         8.6568964680
          28
ANG Step:       1613 Time:    33341.3493268216
C          1.7998739007        14.0542343218         9.6593371962
C          3.0703741933        13.8730612764         9.1505893441
C          3.5238259050        12.5809133969         8.6354583712
C          2.5985303015        11.5561977975         8.7034109007
C          1.2274361976        11.8712347807         9.0138607876
C          0.8222110367        13.0593181708         9.6218581027
H          4.6030594039        12.5036508859         8.5924562115
H          0.5134840909        11.0860563252         8.8029947148
O          1.5492631977        15.2398099473        10.2945109250
H          0.5930044369        15.4457606033        10.1943250953
O         -0.5180394085        13.3546796533         9.9312206133
O          4.0995722736        14.6792545779         9.1926876034
C          2.9239994657        10.0971957410         8.5565836733
C          2.6253538136         9.1943756950         9.5744153156
H          3.4170374727         9.7943043513         7.6366395722
C          1.9234169265         9.5834920366        10.6812387429
H          2.9960687803         8.1863728145         9.5069212812
O          1.6053958778         8.5260568134        11.5233803490
H          1.3583604196         8.9263748660        12.3633686324
O          1.3187394597        10.7328882756        10.9442006693
C         -1.2911339570        12.2879109116        10.5457539324
H         -2.3199031665        12.6360388782        10.5238081927
H         -1.3323929836        11.3505653859        10.0106227770
H         -0.9362114624        12.0526961076        11.6151473336
C          3.9079981105        16.0888365575         9.4031497170
H          3.5711864760        16.2852785167        10.4572610223
H          4.8176989761        16.6487778717         9.2232469886
H          3.0809084188        16.4025130190         8.7962120833
          28
ANG Step:       1620 Time:    33486.0421013335
C          1.7812822558        14.0828660937         9.6580690287
C          3.0682323322        13.8590111927         9.1542640359
C          3.4784775511        12.5756419811         8.6422787007
C          2.5954929773        11.5636612311         8.7117649056
C          1.2542905167        11.8809380010         8.9940752784
C          0.8466667616        13.0901773473         9.6140662665
H          4.5289673470        12.4838289328         8.5972108355
H          0.5051061212        11.1054878545         8.8772819963
O          1.5662763297        15.2474511191        10.2934915930
H          0.6491227754        15.5298067996        10.2050645793
O         -0.5330383393        13.3431399801         9.9289613687
O          4.1392368743        14.6860898768         9.1969232316
C          2.8851944090        10.1017647834         8.5505713215
C          2.6485295479         9.1774722921         9.5269202207
H          3.4490811044         9.8480875431         7.6738084596
C          1.9146353647         9.5976667790        10.6918617515
H          3.0728533488         8.2230852351         9.4606415820
O          1.6275133658         8.5434972571        11.5429241035
H          1.2066831976         8.8760743239        12.3629671336
O          1.3286615131        10.7404401774        10.9533048683
C         -1.3028458561        12.2866911147        10.5500860791
H         -2.3259097183        12.6822996798        10.5781360999
H         -1.3010047808        11.3753432278         9.8884811310
H         -0.9279692126        12.0341663823        11.5400614883
C          3.8908332739        16.0752564172         9.4204630152
H          3.5539316133        16.1898605175        10.4645017931
H          4.8190626930        16.6332002326         9.2611711964
H          3.0137281613        16.4100459419         8.7977653539
          28
ANG Step:       1642 Time:    33940.7908212281
C          1.7635282159        14.1630452431         9.6485478044
C          3.1216201504        13.8449142481         9.1626586758
C          3.4189640898        12.5712145576         8.7047669537
C          2.5373611324        11.5114491466         8.6959073016
C          1.2208005007        11.9046280076         9.0141367798
C          0.8026782930        13.1253603440         9.5449056605
H          4.4526524051        12.3708775556         8.4709253037
H          0.4756149376        11.1595864581         8.8726772352
O          1.5854683988        15.3416002187        10.3225340594
H          0.6571364797        15.6054395145        10.2506686745
O         -0.4805345212        13.3323025246         9.9185815370
O          4.1940870155        14.6891477046         9.1963002504
C          2.8467221445        10.1417775642         8.4477858988
C          2.6508833337         9.2121565906         9.5093219889
H          3.5508549290         9.8958608384         7.7000673800
C          1.8883127216         9.5845069357        10.6943938833
H          3.1176321592         8.2141593866         9.4204398215
O          1.6956955932         8.5855631416        11.6182019226
H          0.9955720210         8.8520242479        12.2078770264
O          1.3932704204        10.7216780655        10.9730879658
C         -1.3065962737        12.2893667419        10.5135060545
H         -2.2845860824        12.7412263925        10.6989525281
H         -1.2866567524        11.4928220259         9.8236060215
H         -0.8361408320        11.9504113185        11.5249841895
C          3.8521899684        16.0568092979         9.4958208006
H          3.5766284769        16.1228098183        10.5491361435
H          4.7825598145        16.5600513512         9.2582000977
H          3.1140297786        16.4503998376         8.8050230167
          28
ANG Step:       1648 Time:    34064.8131993812
C          1.7789923037        14.1621597678         9.6381787661
C          3.1219559763        13.8700954364         9.1783097814
C          3.4315431808        12.5460160449         8.7153745285
C          2.5110542990        11.5225903996         8.6862763248
C          1.1910866813        11.8986802577         9.0277978715
C          0.7915118236        13.1365811956         9.5285287735
H          4.5483031638        12.3958114463         8.5752225149
H          0.4614807494        11.1181808278         8.9401030594
O          1.5788487994        15.3733690967        10.3336354049
H          0.6404432095        15.6266852015        10.2117416717
O         -0.4616111522        13.3420766418         9.9184273871
O          4.1830555702        14.6809633675         9.1937624673
C          2.8516983173        10.1277818852         8.4282970574
C          2.6361574013         9.2436186157         9.5248510625
H          3.5517257181         9.8591159826         7.6313080581
C          1.8968969024         9.5650160943        10.6790001556
H          3.1492568416         8.2006865974         9.4330809633
O          1.7144473130         8.5890698599        11.6330892401
H          1.0931117165         8.8538533703        12.3412916764
O          1.4099308509        10.7149108753        10.9774836798
C         -1.2810224260        12.2966792709        10.5202046627
H         -2.2842872081        12.7271882946        10.6286738032
H         -1.2134327353        11.4723951352         9.8260917431
H         -0.8927034271        12.0265589991        11.4923610863
C          3.8662147661        16.0564519916         9.5148926211
H          3.5615810133        16.0912960398        10.5217161001
H          4.7978146303        16.5737621292         9.2783608836
H          3.0938009745        16.4049987063         8.8572898527
          28
ANG Step:       1662 Time:    34354.1987484051
C          1.8112982914        14.1739806243         9.6286637449
C          3.0952003571        13.8805434603         9.2068676252
C          3.4712944143        12.5031014451         8.7560977015
C          2.4795609415        11.5712069450         8.6422278447
C          1.1224330095        11.8541274713         9.0563399668
C          0.8148132899        13.1709562714         9.4977330157
H          4.5240764469        12.3573389596         8.7256975532
H          0.3837068305        11.0989130681         8.9706307612
O          1.5432601081        15.4198125769        10.3429343098
H          0.6055714229        15.6225813577        10.1725631591
O         -0.4399891987        13.3937021116         9.9332817306
O          4.1452589674        14.6743332067         9.1927850470
C          2.8578109527        10.0844676586         8.4121497317
C          2.6286552687         9.2912573983         9.5267663886
H          3.4614702383         9.8107091222         7.5898513128
C          1.9043866480         9.5476487368        10.6795590931
H          3.0292441417         8.2843330434         9.5400307779
O          1.7642289622         8.5763757377        11.6622600660
H          1.4162136075         9.0327898193        12.4288259640
O          1.4446853905        10.6956536218        10.9865463732
C         -1.2126403768        12.3219399215        10.5007077194
H         -2.2429864562        12.6734688252        10.4089649596
H         -1.2102972296        11.3869252619         9.9805059804
H         -0.8877864000        12.1248618674        11.5993634254
C          3.9245435112        16.0564833291         9.5400916643
H          3.6007028871        16.1545025656        10.5917836292
H          4.8301014145        16.6416527337         9.3953659912
H          3.0659532625        16.3913886038         8.9569638459
          28
ANG Step:       1675 Time:    34622.9139010701
C          1.7893515589        14.2160393428         9.6545355473
C          3.0938039672        13.8212839109         9.2071772478
C          3.4537643861        12.5180761201         8.8178523644
C          2.4852038190        11.5573240608         8.5934440017
C          1.1184792390        11.8368557673         9.0655741910
C          0.8503441599        13.1794260046         9.4918517084
H          4.4870734987        12.2051066412         8.6954602670
H          0.2937563439        11.1324537581         8.8672887980
O          1.4993100850        15.4126997872        10.3186387688
H          0.5527352292        15.5670137477        10.2015787020
O         -0.4250000584        13.4601245771         9.9502756619
O          4.1207548741        14.6928812523         9.2025227334
C          2.8322879728        10.1060137813         8.4217725969
C          2.6380543847         9.2685547773         9.5184914627
H          3.4230737999         9.7494965096         7.5578409965
C          1.9128366203         9.5607184993        10.7054832281
H          2.9543946267         8.2590988828         9.5138708923
O          1.8188676004         8.5604420403        11.6779831043
H          1.7163739716         9.2056808319        12.4037156322
O          1.4558790313        10.6948982704        11.0056105662
C         -1.1667175918        12.3527384560        10.4949482282
H         -2.1968309075        12.6673349106        10.3570680134
H         -1.0674987289        11.3055930251        10.0734082033
H         -0.9226548691        12.2727820876        11.5014215883
C          3.9704211604        16.0668002588         9.5721183391
H          3.7598922331        16.1861010954        10.6518936633
H          4.9137240956        16.5856966472         9.3737227958
H          3.1742372451        16.5589117003         8.9726234438
          28
ANG Step:       1684 Time:    34808.9474682998
C          1.7647595618        14.2202112186         9.6711174759
C          3.1021256833        13.8132392329         9.2169888654
C          3.4234513430        12.5140172732         8.8491125135
C          2.4827582022        11.5276571666         8.5841720986
C          1.1536562321        11.8506773807         9.0488731792
C          0.8544529010        13.1784290762         9.5110328803
H          4.4294342192        12.2081285873         8.6398594953
H          0.3453092734        11.2195503077         8.7900209506
O          1.4699376041        15.3907901642        10.2864898195
H          0.4930280683        15.4950355202        10.2581257762
O         -0.4052328915        13.5006095905         9.9529316254
O          4.1101311568        14.7058598923         9.2111735028
C          2.8138539209        10.1315260875         8.4253192267
C          2.6353478176         9.2340783319         9.5239630745
H          3.3584885737         9.7633518685         7.5958198946
C          1.9396161058         9.5598089790        10.7016466630
H          2.9592736271         8.1834450768         9.3900766104
O          1.8579158283         8.5669328598        11.6862622129
H          1.8797551878         9.1428006442        12.4841867761
O          1.4504896192        10.7099603814        11.0271307403
C         -1.1552964455        12.3764807299        10.4876465925
H         -2.2092621919        12.6496903476        10.3837248727
H         -0.8895374601        11.4355182444        10.0806872583
H         -0.9183098097        12.3618920474        11.6306287821
C          4.0022407444        16.0865272014         9.5948965774
H          3.8386279781        16.1649179911        10.6794934737
H          4.9988738035        16.4512461831         9.3029795828
H          3.2775255903        16.6559152687         9.0092704302
          28
ANG Step:       1693 Time:    34994.9810355294
C          1.7609957499        14.1830762742         9.6724570877
C          3.0930284760        13.8521075592         9.2458406077
C          3.3915019081        12.4874496817         8.8581290397
C          2.4704027939        11.5203708300         8.6070538440
C          1.2020743105        11.8874138510         9.0179267854
C          0.8491965072        13.1779200092         9.5424638462
H          4.4715247928        12.3047524137         8.6034733499
H          0.3699774579        11.2337967919         8.7115053999
O          1.4383131527        15.3715549871        10.2492956790
H          0.4734973864        15.3854965393        10.3434154873
O         -0.3882048588        13.5303345051         9.9502114877
O          4.1015743188        14.7112308586         9.2177015371
C          2.7957355562        10.1264519460         8.4432020303
C          2.6276456925         9.2070202153         9.5121250305
H          3.3339939934         9.7835434154         7.5363952243
C          1.9693559987         9.5625944177        10.7029852579
H          2.9665186392         8.1515649996         9.3081697139
O          1.9004696785         8.5835797333        11.6924259406
H          1.9728115657         8.9858573916        12.5761508315
O          1.4461917633        10.7192478807        11.0439813898
C         -1.1470354708        12.4234878182        10.5165902628
H         -2.2188786959        12.5907258297        10.3658100833
H         -0.7352094598        11.5075324015        10.0517991246
H         -0.9589297527        12.4014022934        11.5404002319
C          4.0477230183        16.1057090842         9.6131103485
H          3.9006769498        16.1668397365        10.6728551106
H          5.0573611003        16.3490362173         9.3018012168
H          3.3243490770        16.7038841125         9.0715737433
          28
ANG Step:       1704 Time:    35222.3553954767
C          1.7846572342        14.1356384809         9.6732396098
C          3.0626648470        13.8942022327         9.2835985443
C          3.3951799644        12.4876729423         8.8486430841
C          2.4746742960        11.5291992745         8.6644446307
C          1.2044418465        11.9420673620         8.9765007537
C          0.8466306816        13.1631511136         9.5741982030
H          4.4293682340        12.4417132852         8.6285418992
H          0.4534366919        11.2601713863         8.6800506967
O          1.4021200450        15.3535165942        10.2000231132
H          0.4616068004        15.2225469909        10.4653029731
O         -0.3853937835        13.5570395960         9.9477601260
O          4.0930279720        14.7135000236         9.2237796863
C          2.7830014564        10.0795409939         8.4536890703
C          2.6104457489         9.1918974452         9.4810009383
H          3.2522867297         9.8457502852         7.5338172054
C          1.9959066792         9.5859217416        10.7350652212
H          2.9473472904         8.1724491924         9.3386641582
O          1.9578141634         8.5955121392        11.6909168403
H          2.0192866575         8.8876198445        12.6322259318
O          1.4515135328        10.7094825256        11.0492701249
C         -1.1350202832        12.4835182754        10.5373479931
H         -2.1905537419        12.5346626912        10.2582307762
H         -0.7574810050        11.5782253583        10.1431536851
H         -0.9495487040        12.4178856897        11.6805354980
C          4.1165007640        16.1142380265         9.6269525801
H          3.9626759523        16.2061563486        10.7266121521
H          5.1443190199        16.4147966308         9.3792763821
H          3.3318366789        16.7023470829         9.1253033598
          28
ANG Step:       1716 Time:    35470.4001517829
C          1.7869122787        14.1459595802         9.7068531380
C          3.0709350060        13.8766312884         9.2911880357
C          3.4310439358        12.5631364327         8.8373920745
C          2.5215603564        11.5277414575         8.7377630659
C          1.1417431536        11.9862024846         8.9396662398
C          0.8502622591        13.1378388326         9.5855263270
H          4.5043242291        12.4136321151         8.6479303630
H          0.3761018208        11.2414093179         8.6740170501
O          1.3660413117        15.3332775965        10.1452197309
H          0.5140277664        15.0947446268        10.5794433886
O         -0.3995588117        13.5746125457         9.9492891206
O          4.0945943230        14.7259099885         9.2327242163
C          2.7667789071        10.0595616898         8.4369575369
C          2.5714152236         9.1852232765         9.4919505127
H          3.2195967150         9.8058405500         7.4660208786
C          2.0258899367         9.6118711826        10.7674299518
H          2.9124068554         8.1620915690         9.4513742233
O          2.0274137261         8.5826642773        11.6886968618
H          1.9943236388         8.9989978886        12.5438852054
O          1.4642647521        10.6903188591        11.0458235926
C         -1.1300679819        12.5321876115        10.5791162015
H         -2.1508603798        12.6308000003        10.2138562082
H         -0.8017941859        11.4932075384        10.2851978936
H         -1.0312042738        12.5476191908        11.6074218388
C          4.1867569952        16.1117573430         9.6525977446
H          4.0214142860        16.2003794230        10.7256804055
H          5.1557750275        16.5364650275         9.4287295959
H          3.3925117748        16.6632783041         9.1409297416
          28
ANG Step:       1745 Time:    36069.8416461895
C          1.8160995410        14.1150336354         9.7298845120
C          3.1715023786        13.9205792730         9.2921202087
C          3.5268641473        12.5469876211         8.8335839201
C          2.5220026054        11.6029022169         8.7566398337
C          1.1261610903        11.9486957941         8.8976733887
C          0.8117538878        13.1543755835         9.5446942514
H          4.5660650242        12.3978194239         8.6821477625
H          0.3477613643        11.3015108048         8.5759702214
O          1.3102382940        15.3829578341        10.0926574883
H          0.4256644010        15.2745308165        10.4850375019
O         -0.4211239135        13.5527842155         9.9505369250
O          4.1913396410        14.7606545413         9.2457893886
C          2.7238258060        10.1141325258         8.4830055234
C          2.5497844010         9.2125697766         9.4958958708
H          2.9619646409         9.7941568702         7.4959692505
C          2.0679809265         9.5707972625        10.7641636509
H          2.8162031557         8.1970358086         9.3869463352
O          2.1972054162         8.5806135533        11.7305429797
H          1.6696550294         8.9191405678        12.5012033980
O          1.5051443515        10.6715313843        11.0766042478