          28
ANG Step:        986 Time:    20381.0108098240
C          4.5604909485        12.1253344155         2.5977265795
C          4.0984563341        11.4387106479         3.7832322454
C          4.9618014488        11.1269524688         4.8553123157
C          6.2941422766        11.3829364387         4.8015821177
C          6.7814797356        12.0916742894         3.6011630118
C          5.8804063106        12.4922542569         2.5232574284
H          4.5298436502        10.6443773179         5.7407911064
H          7.8366488665        12.0947324093         3.3879648470
O          3.6324448479        12.2989448060         1.6196856062
H          4.0127861146        12.7253895184         0.8312668632
O          6.1912716750        13.2187062067         1.4768179024
O          2.7872275044        11.1255061298         3.7549840638
C          7.3066959931        11.1930849519         5.8594331551
C          8.0147489365        12.2823169658         6.2723856011
H          7.5470461761        10.1917561439         6.3341636787
C          8.0352248630        13.5905034839         5.6205391196
H          8.8096213803        12.1397629290         6.9444774332
O          9.1301319151        14.3357803362         6.0458227071
H          8.8738027306        15.2461101549         5.8426682159
O          7.2016528706        14.0898762159         4.8193102700
C          7.4827448308        13.7171655580         1.4063097425
H          7.5013210047        14.4047980427         0.4932498804
H          7.6830979273        14.2743804475         2.3241205585
H          8.1804017678        12.8906755656         1.3014548233
C          2.1372636628        10.5660359983         4.8856215873
H          2.2192168007         9.4728875090         4.7851076564
H          2.5611937190        10.8899833816         5.8724553848
H          1.1181626561        10.9073697502         4.8349055827
          28
ANG Step:        995 Time:    20567.0443770536
C          4.5399852062        12.1183656531         2.6240163663
C          4.1515851820        11.4490487657         3.7692189956
C          4.9798231588        11.1118385625         4.8182133177
C          6.2942891858        11.3708811773         4.8154361925
C          6.7506959741        12.0302753559         3.5891873499
C          5.8870944288        12.4799237612         2.5554011326
H          4.5193034708        10.8056630746         5.7588725653
H          7.8199838711        12.1222332166         3.4157887258
O          3.6125591889        12.3191846342         1.6322123970
H          4.0936096607        12.7862884997         0.9217209778
O          6.1813044486        13.2062151060         1.4543035815
O          2.8160582785        11.1433542789         3.7576222699
C          7.3026518789        11.2050961711         5.8549951907
C          7.9998848000        12.2752357735         6.2961690070
H          7.5439105631        10.2595528737         6.2110322162
C          8.0172003224        13.5846736460         5.6617247709
H          8.8014341190        12.0798085754         7.0559933158
O          9.1182918502        14.3609446783         6.0441947926
H          8.8251698241        15.2690709871         5.8166683809
O          7.1910077042        14.0695918579         4.7940369108
C          7.4886358273        13.7458759134         1.4002149396
H          7.5224848881        14.4930204748         0.6097901863
H          7.7338672534        14.1745090992         2.3684400100
H          8.2304703516        12.9500419592         1.2315560807
C          2.1448128152        10.5813739889         4.9272028332
H          2.1939993514         9.5146922269         4.8737342085
H          2.4790245778        10.8543449270         5.8870153778
H          1.0948233402        10.8668588050         4.8458613952
          28
ANG Step:       1030 Time:    21290.5082496133
C          4.5168386043        12.0994288755         2.6212119091
C          4.1068510388        11.3610697775         3.8293599145
C          4.9877852990        11.0686126418         4.8837354518
C          6.3208243691        11.3492172859         4.7094898504
C          6.7718282992        11.9102178114         3.4491417525
C          5.8413218963        12.4555023579         2.5111265129
H          4.6704976277        10.5834278826         5.8389984864
H          7.8262226977        12.0440322142         3.2684423749
O          3.6254196723        12.4472778484         1.6910071630
H          3.9753143327        13.0339185099         1.0141765811
O          6.2231275293        13.1388212360         1.4329336772
O          2.8012557291        11.1766380467         3.8722983531
C          7.2643483534        11.2307916110         5.8972254163
C          8.0200479928        12.3120446589         6.3516771458
H          7.5262406929        10.1894966621         6.2283938061
C          7.9569289657        13.6232685252         5.7529774506
H          8.6915945734        12.2789562786         7.1694055804
O          8.9964272804        14.4531911188         6.0654179510
H          8.8174729865        15.2527543843         5.5300365638
O          7.2310621330        13.9138463797         4.8068565138
C          7.5257414460        13.8260702098         1.4230609612
H          7.2744667073        14.8211632546         0.8681789435
H          7.8495926545        14.0171940869         2.4175169478
H          8.2271967276        13.2162378885         0.8594850041
C          2.1814485825        10.6432201309         4.9704317370
H          2.4049038869         9.5670554989         5.0707242343
H          2.5081853347        11.2087666481         5.8754575465
H          1.1377934910        10.8548911314         4.7994886442
          28
ANG Step:       1039 Time:    21476.5418168429
C          4.5171097619        12.0786483183         2.6438091819
C          4.1083736833        11.3473994780         3.8515166744
C          4.9810128376        11.0622254294         4.8982051918
C          6.3352140435        11.3350136465         4.7099648344
C          6.7822014091        11.9169689134         3.3961955523
C          5.8795010119        12.4353283602         2.4791032644
H          4.7539076519        10.4936772568         5.7707125250
H          7.8502867183        11.9321397105         3.1636283305
O          3.6145841622        12.4847878650         1.7016506982
H          4.0159659493        13.0868010990         1.0345887775
O          6.2575070876        13.1320395897         1.4321717524
O          2.7578098172        11.1800612714         3.8817663837
C          7.2666147212        11.2401329186         5.9074729212
C          8.0098737133        12.3252520786         6.3550513088
H          7.5175621163        10.3033220377         6.2925383247
C          7.9754163524        13.5986355651         5.7779942405
H          8.7319420206        12.2166015595         7.2100616713
O          8.9647314485        14.4871765571         6.0866388267
H          8.8203150626        15.2088063140         5.4559927803
O          7.2190650402        13.8876397730         4.7927510120
C          7.4908227174        13.8455056064         1.4209089602
H          7.2656633081        14.7746715460         0.9828745642
H          7.9093549872        13.9694733824         2.4439137622
H          8.2351249333        13.2936283735         0.8328210375
C          2.1898625713        10.6710418971         4.9932858496
H          2.4436005465         9.6443848531         5.1651849120
H          2.4261040754        11.1749952190         5.8965010763
H          1.0981667121        10.7109664591         4.8793661986
          28
ANG Step:       1053 Time:    21765.9273658668
C          4.5389225316        12.0695137706         2.6665303252
C          4.0722601259        11.3609556060         3.8378770041
C          5.0137295088        11.0441261744         4.8927987945
C          6.3647923351        11.3385225115         4.6995663835
C          6.8038680363        11.8952568962         3.3885363092
C          5.9108201539        12.3576752913         2.4787173327
H          4.6812109675        10.4472810405         5.7816241466
H          7.8444219502        11.7971765602         3.1169770360
O          3.5937257259        12.5298757240         1.7382044052
H          4.1986712439        13.1001784622         1.1809092824
O          6.2909666312        13.1324247113         1.3943996154
O          2.7286009572        11.2031004009         3.8605336782
C          7.2727925646        11.2592251594         5.8971385755
C          8.0078748254        12.3343425938         6.3873597917
H          7.4620213534        10.2898135730         6.3769902558
C          7.9896263453        13.5659464945         5.7686730378
H          8.6976828564        12.0654627139         7.1635089732
O          8.9199930303        14.5437937250         6.1298455006
H          8.8239152079        15.1691523847         5.3752404001
O          7.2014715874        13.8539729604         4.7727594943
C          7.4670642904        13.8611205750         1.4383326852
H          7.2618040964        14.9562132158         1.0443882872
H          7.8455507380        13.9605163195         2.3939463015
H          8.1998473961        13.4307331913         0.7569875476
C          2.1549766303        10.6718256819         5.0905664614
H          2.5494336906         9.6683260769         5.2615154250
H          2.3855140568        11.2843912709         5.9635489072
H          1.1028690531        10.5535298037         4.9360521387
          28
ANG Step:       1061 Time:    21931.2905367376
C          4.5431137154        12.0766977032         2.6659158118
C          4.0531613614        11.3788266136         3.8215708202
C          5.0337769536        11.0282428068         4.8710841738
C          6.3725483675        11.3475957571         4.6931200089
C          6.8267224581        11.8587140306         3.4298508742
C          5.9073954381        12.3158040596         2.4758843660
H          4.6528594120        10.5643048924         5.7465818144
H          7.8790393387        11.7875095787         3.1523353089
O          3.6030243386        12.5514572076         1.7724073757
H          4.1960777029        13.0926143966         1.2344902816
O          6.2832087644        13.1196974185         1.3688914888
O          2.7214486873        11.2157117874         3.8552130028
C          7.2820089151        11.2591042951         5.8840184307
C          8.0050793792        12.3174929014         6.4069372478
H          7.3665054851        10.3168677719         6.3435458538
C          7.9873066316        13.5749376185         5.7346491050
H          8.7372401166        12.0533454649         7.2092046970
O          8.8895940773        14.5706105047         6.1513984044
H          8.8354175870        15.1638022526         5.3951845848
O          7.2028379086        13.8333218817         4.7717965670
C          7.4704320460        13.8981829994         1.4347876441
H          7.2591859772        14.8773976328         1.1292514451
H          7.8359823781        13.9605319292         2.4963071706
H          8.1917692265        13.4907169691         0.7210504600
C          2.1389004653        10.6559569340         5.1549968615
H          2.6327801554         9.7291411599         5.3072097398
H          2.3446932247        11.3831977993         5.8948876879
H          1.0775423383        10.5394863474         4.9241546155
          28
ANG Step:       1073 Time:    22179.3352930437
C          4.5348808173        12.0928898273         2.6555822961
C          4.0539073151        11.3998952989         3.8119337740
C          5.0344961801        11.0200646461         4.7981305171
C          6.3693830583        11.3523124720         4.7096086461
C          6.8530409263        11.8053119756         3.4751582432
C          5.9182925350        12.2724223761         2.4681702894
H          4.6641693230        10.7473573321         5.8204986682
H          7.9180357118        11.8511294398         3.2964148405
O          3.6364970921        12.5822730924         1.8306599113
H          4.0857652525        13.1641455428         1.1525289206
O          6.2488891551        13.0776542736         1.3454330818
O          2.7136309269        11.2237632015         3.8745354103
C          7.2924338123        11.2467414489         5.8569381874
C          8.0118826408        12.3020827113         6.4199982692
H          7.2482431893        10.2452409238         6.3346953911
C          7.9917957179        13.5810224445         5.7120288151
H          8.7135288043        12.1836507408         7.2182447914
O          8.8355556700        14.5965383474         6.1758918273
H          8.8649206975        15.2614317243         5.4603695723
O          7.2086032789        13.8097510368         4.7627354597
C          7.4860461327        13.9363693454         1.4530429741
H          7.1262427460        15.0163323487         1.1591396088
H          7.8283572990        13.9387866188         2.4507757509
H          8.2292175374        13.5516565365         0.7495995367
C          2.1336845159        10.6543319093         5.1963559874
H          2.7062380133         9.7323559825         5.4637024924
H          2.2660345295        11.5062994011         5.9328677648
H          1.0876250701        10.5196755788         4.9524063000
          28
ANG Step:       1083 Time:    22386.0392566322
C          4.5535561375        12.1009196367         2.6560978737
C          4.0672757095        11.4085896460         3.8105081322
C          5.0081777283        11.0259337904         4.7585391761
C          6.3550871021        11.3436981528         4.7307681814
C          6.8573409013        11.7850301246         3.4629587992
C          5.9456437840        12.2508269985         2.4695193552
H          4.7099637726        10.8639317709         5.7564018863
H          7.9377244845        11.9207780330         3.4079109762
O          3.6513114015        12.6205772553         1.8583481049
H          3.9917435487        13.1551435454         1.1498266916
O          6.2304801652        13.0344121688         1.3437716744
O          2.7128778169        11.2180433356         3.9178797420
C          7.3017748522        11.2162733255         5.8536944156
C          8.0157718498        12.3163871817         6.3964723521
H          7.2304131363        10.2753632297         6.3443991399
C          7.9994056288        13.5676738974         5.7288945831
H          8.6974903140        12.2571824943         7.2732564653
O          8.7892002456        14.6075782722         6.1920852387
H          8.8382767740        15.3354170588         5.5499737555
O          7.2128913721        13.8002507610         4.7415662129
C          7.4612550609        13.9678201973         1.4575060253
H          7.1148395166        14.9050725529         1.2158545425
H          7.8656693129        13.9361195124         2.5189954835
H          8.2458208368        13.6146143371         0.7853993536
C          2.1591743076        10.6835713680         5.1948551042
H          2.6467979634         9.8206979168         5.6011332978
H          2.1613086723        11.4435353506         5.9474527888
H          1.1144767747        10.4398856700         4.9875833485
          28
ANG Step:       1097 Time:    22675.4248056561
C          4.6035473100        12.0987838616         2.6732568507
C          4.0679621934        11.4145672298         3.7958535440
C          4.9900668514        11.0521197099         4.7838035141
C          6.3365135827        11.3181622679         4.7099137666
C          6.8548626694        11.7840976853         3.4288655800
C          5.9765115912        12.2431215868         2.4734228962
H          4.5516130828        10.7825184307         5.7670195543
H          7.9229062776        11.9636198263         3.3641556835
O          3.6354904331        12.6816886284         1.8751257164
H          4.1138236061        13.1353617221         1.1708727824
O          6.2527993759        12.9859630317         1.3588361506
O          2.7331523135        11.2033903479         3.9950379823
C          7.3182123343        11.1936481886         5.8815192409
C          8.0172711352        12.3230487200         6.3514043735
H          7.3583366166        10.2866242697         6.4450557154
C          7.9743866654        13.5712400111         5.7306416995
H          8.5968361577        12.2200227028         7.2765671793
O          8.7338104947        14.6053005286         6.2262416634
H          8.6246313500        15.3284475529         5.5982759192
O          7.2346088621        13.7955082844         4.7167591049
C          7.3973191627        13.9452370080         1.4880899512
H          6.9976367463        15.0156175423         1.1973460264
H          7.7410561599        13.9949289473         2.4518898146
H          8.1687098860        13.6756647067         0.7689768041
C          2.1891699914        10.7367830938         5.1781103511
H          2.7091083745         9.8935385594         5.6115877435
H          2.1143346545        11.4877209632         5.9530529753
H          1.2043322737        10.3605024521         4.9291151927
          28
ANG Step:       1104 Time:    22820.1175801680
C          4.6004173818        12.0999743517         2.6755150692
C          4.0659774889        11.4107980607         3.7986047274
C          4.9843263078        11.0675393176         4.8320658077
C          6.3402308522        11.2980047753         4.6915563869
C          6.8553589139        11.7864478367         3.4244076999
C          5.9785170532        12.2474079713         2.4716765099
H          4.5200758092        10.6989459611         5.7057740668
H          7.9225599339        11.9376599839         3.2760344064
O          3.6340427790        12.7099203338         1.8815013481
H          4.2084953124        13.1197890973         1.1964735664
O          6.2830062740        12.9707568416         1.3670858011
O          2.7574124566        11.2057356826         4.0146669966
C          7.3206874026        11.1921432938         5.8954194569
C          8.0122046146        12.3105652817         6.3333492619
H          7.4443801872        10.3019366653         6.4637732312
C          7.9484510638        13.5821513218         5.7194741865
H          8.5825737197        12.1824903442         7.2769327395
O          8.7097662137        14.5994371152         6.2465031172
H          8.4773186047        15.3152692987         5.6049287643
O          7.2494885534        13.7988751152         4.7046872603
C          7.3420076867        13.9384800749         1.4856609595
H          6.9816012407        14.8762084897         1.2269698433
H          7.7030191528        14.0242026235         2.5568010069
H          8.1107270328        13.6783772904         0.7621535483
C          2.1990820222        10.7527592919         5.1894482183
H          2.7838455803         9.9549433437         5.5568309150
H          2.1014692717        11.5206572849         5.8816365877
H          1.2350498880        10.3654460855         4.8748060822
          28
ANG Step:       1119 Time:    23130.1735255507
C          4.5339863538        12.1131147772         2.6718559477
C          4.1005015336        11.3926044382         3.8618600385
C          4.9917909808        11.1028139112         4.9070492489
C          6.3734475600        11.2429002516         4.6987063888
C          6.8511628526        11.7852753283         3.4296847287
C          5.9402136354        12.2531230307         2.4795432117
H          4.6692422663        10.5469505530         5.7968443332
H          7.9128384224        11.7761120641         3.1717073031
O          3.6736881686        12.7582221490         1.8917210904
H          4.2125581597        13.1681007351         1.2106369072
O          6.3357817745        12.9299437933         1.3710749579
O          2.8149012901        11.2434131143         3.9863913501
C          7.3016664206        11.1808776445         5.8885144693
C          8.0010048885        12.2950453322         6.3143925733
H          7.5120172045        10.2545903499         6.3457039410
C          7.9058671829        13.5652496825         5.7281558397
H          8.6288045753        12.1907445346         7.2190781377
O          8.6521350860        14.5941697747         6.2774871029
H          8.3036700746        15.3580542783         5.7750407526
O          7.2668049751        13.8294601575         4.6533293889
C          7.2586205618        13.9229968798         1.5050442866
H          6.7439008935        14.9319042874         1.1617834041
H          7.5982573492        14.0192379619         2.4700342235
H          8.0868793362        13.6805430039         0.8362614534
C          2.2150894310        10.7616785190         5.2184649969
H          2.8179173661         9.9894476082         5.6443337557
H          2.0874468985        11.6103011076         5.8719790516
H          1.2468689120        10.3883236039         4.8987958572
          28
ANG Step:       1126 Time:    23274.8663000627
C          4.5207535454        12.1179223143         2.6826385413
C          4.1329108004        11.3951006204         3.8967364645
C          5.0178696942        11.1078090064         4.9313454019
C          6.3881207731        11.2254535970         4.7152789140
C          6.8399381531        11.7756850320         3.4367521784
C          5.9050373092        12.2487427735         2.4953977836
H          4.7984826590        10.5865998204         5.8261168250
H          7.8945556315        11.7018881799         3.1878081306
O          3.6916201254        12.7764369569         1.8933728679
H          4.1992272873        13.2359022838         1.1693851197
O          6.3377276280        12.8922571618         1.3652098820
O          2.8240186520        11.2622183592         3.9638355744
C          7.2889236072        11.1673266412         5.8721861661
C          7.9953677979        12.2929933220         6.3141768775
H          7.5280667455        10.1804958693         6.2459046532
C          7.8904903349        13.5515445689         5.7312947508
H          8.6664704796        12.2198396123         7.1854667211
O          8.6214478372        14.5918362011         6.2903877762
H          8.2867706504        15.4154257957         5.8805610854
O          7.2713891833        13.8482882470         4.6276506511
C          7.2318640024        13.9510180673         1.4960880134
H          6.7533702838        14.8131420440         1.1852487503
H          7.6100880991        14.0552772161         2.5703857614
H          8.1064020448        13.7378468249         0.8799418634
C          2.2241259695        10.7692839088         5.2259656274
H          2.7558461540        10.0044915210         5.7392614867
H          2.1048407190        11.5764592058         5.8639785481
H          1.2503417961        10.3890360600         4.9573874838
          28
ANG Step:       1141 Time:    23584.9222454454
C          4.5584903243        12.1303580620         2.7376025578
C          4.1652632412        11.4413316431         3.9319514951
C          5.1061198511        11.0928245210         4.9672309605
C          6.4051564370        11.2374244137         4.7199669682
C          6.7939566687        11.7291541481         3.4675967155
C          5.8730637555        12.2325748855         2.5344670259
H          4.7945686290        10.7619858736         5.9559955105
H          7.8539973732        11.6776790618         3.2125827587
O          3.6954651179        12.8087280225         1.8905739653
H          4.2752809961        13.2517260764         1.2259665993
O          6.3134743490        12.7928203835         1.3470229678
O          2.8170027732        11.2744098976         3.9562757556
C          7.3089477858        11.1193734892         5.8540537232
C          7.9716811519        12.2737399710         6.3168031473
H          7.6240836732        10.1480857040         6.0761869308
C          7.8518888503        13.5672817128         5.6850019666
H          8.7116073144        12.2303452802         7.1474292420
O          8.5569514914        14.5757410714         6.3314160303
H          8.2379081488        15.4470837621         6.0100006016
O          7.2844313404        13.8752599550         4.6003297677
C          7.2266076238        14.0030725010         1.5156300850
H          6.6445115175        14.9482820981         1.1209543061
H          7.4607658708        14.1610379306         2.5142382754
H          8.1090541574        13.8801135667         0.8924804997
C          2.2363728302        10.7963375529         5.2231879656
H          2.7744243086        10.0286656318         5.7304687050
H          2.1527060409        11.6343620589         5.8927663466
H          1.2436913263        10.4173602327         4.9832900332
          28
ANG Step:       1148 Time:    23729.6150199573
C          4.5633725658        12.1488305047         2.7617597879
C          4.1524401849        11.4699530259         3.9414870483
C          5.1144584735        11.0784749392         4.9783687882
C          6.4182115828        11.2550207360         4.7220561703
C          6.7777486727        11.7055675526         3.4714747815
C          5.9051026807        12.2247942358         2.5428003775
H          4.7317607663        10.8810681973         5.9517743000
H          7.8221804032        11.7256113302         3.2077195037
O          3.6928192175        12.8116822398         1.8993770188
H          4.3530072567        13.2188306765         1.2712738722
O          6.3060663179        12.7573686800         1.3416705648
O          2.8175247266        11.2700694540         3.9737147288
C          7.3416104842        11.0997174428         5.8546470254
C          7.9590100429        12.2715467542         6.3092370195
H          7.7335183039        10.0995138332         6.0581913217
C          7.8410308583        13.5756400732         5.6627244943
H          8.6751995140        12.2104758389         7.1307724582
O          8.5281097510        14.5658716360         6.3575834920
H          8.2016756119        15.4008153052         6.0101407524
O          7.2865843005        13.8839173566         4.5910044471
C          7.2056326347        14.0316692221         1.5070235424
H          6.6811493147        14.8398249465         1.1532185184
H          7.4093756426        14.2097213549         2.6278533410
H          8.0860622902        13.9001517528         0.8849044545
C          2.2356996802        10.8184111932         5.2205045067
H          2.8492721709        10.0384223762         5.6199275876
H          2.1840511787        11.6361665906         5.8580467439
H          1.2582265545        10.4617977556         4.9566946604
          28
ANG Step:       1164 Time:    24060.3413616989
C          4.5449574473        12.2161168362         2.7956511827
C          4.1068698788        11.5186156574         3.9826779141
C          5.0402218726        11.0852392893         4.9643972963
C          6.4257806868        11.2558859382         4.7808058808
C          6.8106493555        11.6679891842         3.4299957746
C          5.9706460660        12.2006282161         2.5292613472
H          4.6955671483        10.9667292595         5.9708842619
H          7.8729380132        11.8052592296         3.2196225640
O          3.7186985979        12.7908663390         1.9475900148
H          4.3713458627        13.1449537749         1.2532631745
O          6.3214608826        12.7332678213         1.3367164119
O          2.8299046147        11.2726457107         4.0161587560
C          7.4426482346        11.0573189989         5.8509905524
C          7.9388162311        12.2954316382         6.2683599609
H          7.9261428207        10.1567681553         6.0319020726
C          7.8493551641        13.5494574434         5.6650305818
H          8.5876604842        12.2470080485         7.1803845227
O          8.4579649215        14.5451896709         6.4213919061
H          8.1673884457        15.3392202283         5.9478207351
O          7.2761335796        13.9088707645         4.5619949581
C          7.1375625680        14.0348602947         1.5112234789
H          6.4809135062        14.8527323925         1.0465396763
H          7.3406239633        14.1740470660         2.5510974210
H          8.0434422578        13.8542915298         0.9509743274
C          2.2487878537        10.8568859558         5.2009574174
H          2.8172811856        10.0418536239         5.5341885667
H          2.2228217056        11.6381410735         5.8996587410
H          1.2411627010        10.5354008053         4.9473607885
          28
ANG Step:       1173 Time:    24246.3749289285
C          4.5642785643        12.2397722312         2.8219919530
C          4.1060249642        11.5427008480         4.0023768280
C          5.0006805203        11.1184229117         4.9566094573
C          6.4035845887        11.2299862396         4.7971037861
C          6.8650230501        11.6501302721         3.4191613619
C          5.9589539640        12.1799108487         2.5139839053
H          4.6991128611        10.8691608945         5.9798093979
H          7.9189708206        11.7596325010         3.2478560936
O          3.7427180552        12.7779245195         1.9725877644
H          4.2472733307        13.0934687807         1.2166020245
O          6.3449779015        12.7512957442         1.3336869443
O          2.8243154288        11.2912270181         4.0219510083
C          7.4823911443        11.0587394842         5.8336816012
C          7.9496146106        12.2994357060         6.2617079376
H          8.0360366405        10.0927122673         6.0362762627
C          7.8486634922        13.5417985183         5.6603269584
H          8.5209837868        12.3366444148         7.1533610029
O          8.4134957191        14.5378417111         6.4533974594
H          8.2101018792        15.3372880366         5.9262597121
O          7.2764554028        13.9198718285         4.5644974026