          28
ANG Step:       1873 Time:    38715.6523801220
C          1.8053170976        14.2813519080         9.6173437192
C          3.0891869852        13.8467501502         9.2912115925
C          3.3560727938        12.5612738068         8.8157115096
C          2.3996024871        11.6082380000         8.8290378071
C          1.0130344092        12.0299327777         9.1716827878
C          0.7466866361        13.3698865451         9.4607677426
H          4.4095099856        12.2690082848         8.6537840731
H          0.2087591788        11.3438991542         9.3698304988
O          1.5532507262        15.5431521706         9.9440981573
H          0.5828836958        15.5103114025        10.1458674280
O         -0.4335940093        13.8561927695         9.8360909738
O          4.1449224611        14.6981232363         9.4292336968
C          2.7201685469        10.1294345288         8.4941454996
C          2.8922482879         9.3216094062         9.6056197829
H          3.1387039587         9.8556791264         7.5337618081
C          2.2514175834         9.5085827966        10.8789060360
H          3.3896427659         8.3496956891         9.4981450214
O          2.6148939146         8.4881349811        11.7216418999
H          2.4701370741         8.9121452890        12.5823440125
O          1.6531291723        10.5714918348        11.2685803728
C         -0.9374251726        13.0869777394        10.9260549507
H         -1.5836194876        12.3079183906        10.5541027129
H         -0.1298492368        12.6666423541        11.4290788139
H         -1.5525277143        13.7815358353        11.5179201500
C          4.1585532986        15.9322926642        10.0493715789
H          3.6464912011        15.8750120780        11.0449756393
H          5.2375985791        16.2244100867        10.1687154601
H          3.6372408130        16.7101380119         9.4648224859
          28
ANG Step:       1880 Time:    38860.3451546339
C          1.8203102323        14.2609972195         9.5829672627
C          3.1008520388        13.8863883198         9.3160898565
C          3.3536907074        12.5714963234         8.8188699390
C          2.3593005519        11.6003159279         8.8079551225
C          1.0130544164        12.0447091266         9.1726414999
C          0.7877597617        13.3835427907         9.4566195819
H          4.3893600660        12.2504078320         8.6280409674
H          0.2102952176        11.3123268698         9.3935657562
O          1.5347595768        15.5439185644         9.9491221218
H          0.5575081173        15.5225382273        10.0204101467
O         -0.4575843191        13.8805067020         9.8497955995
O          4.1514651414        14.6989285485         9.4335752410
C          2.6983925872        10.1367923901         8.4923118925
C          2.9033086034         9.3246543727         9.6043968750
H          3.1857718605         9.9306234624         7.5274278867
C          2.2825610836         9.4830371143        10.8810253604
H          3.4913077152         8.3179448751         9.5215786374
O          2.6338922702         8.4703183454        11.7534647438
H          2.4010007244         8.8343329941        12.6165607408
O          1.6662302928        10.5814466804        11.2735614653
C         -0.9178024764        13.1187143396        10.9259352399
H         -1.4896912413        12.2578986429        10.5281914891
H         -0.1090070922        12.6816047565        11.5638805175
H         -1.5650115472        13.8250722407        11.5400695077
C          4.1678196676        15.9139417644        10.0622513161
H          3.6185268830        15.8849611429        10.9937504193
H          5.1989419100        16.2473858700        10.2803189861
H          3.6384426871        16.6457208574         9.4548002692
          28
ANG Step:       1894 Time:    39149.7307036578
C          1.8165198484        14.3000334698         9.5339799589
C          3.1739352599        13.9168517875         9.3308876885
C          3.3340437780        12.5728870269         8.8437861425
C          2.2925488114        11.5988260312         8.7576229195
C          1.0249980007        12.0590991376         9.1698545765
C          0.8157966014        13.3752674678         9.4490003848
H          4.3736874867        12.2851638561         8.5690788028
H          0.2744073171        11.2904716811         9.2658350767
O          1.4924174580        15.5389327314         9.9545813272
H          0.5220096156        15.6066891538         9.8513369959
O         -0.4658448423        13.9316989347         9.8571765577
O          4.1950619663        14.6670936808         9.4269841341
C          2.6532756628        10.1713995968         8.5029261155
C          2.9199307711         9.3085978739         9.6025313053
H          3.2253885183        10.0762598205         7.5847578461
C          2.3497423756         9.5057839791        10.8853938922
H          3.5756306574         8.4458019028         9.4711208537
O          2.6576223226         8.4479971014        11.8236986757
H          2.2549303641         8.6513728058        12.6570464980
O          1.7134099767        10.5437008953        11.2776841321
C         -0.9073140466        13.1547461456        10.9719792612
H         -1.3779666064        12.2596825126        10.6150616400
H         -0.1589713996        12.8789917332        11.6486652627
H         -1.6332543718        13.7561584666        11.5395311893
C          4.1618803438        15.9297513167        10.1094326592
H          3.5354572053        15.8703947876        11.0300832135
H          5.2147615630        16.1905059201        10.3820331440
H          3.7150147003        16.6461544508         9.4051449976
          28
ANG Step:       1901 Time:    39294.4234781697
C          1.8133817717        14.3465151817         9.5224688796
C          3.1891161375        13.8889155287         9.3176077881
C          3.3182633728        12.5627362825         8.8588781279
C          2.2914087535        11.6217230341         8.7410668899
C          1.0285762246        12.0536271112         9.1592729266
C          0.7900186566        13.3729746293         9.4510293305
H          4.3462694756        12.3046944638         8.5687459125
H          0.2292011661        11.2901557532         9.1882510422
O          1.4722885255        15.5403486977         9.9526605348
H          0.5062066138        15.6308670851         9.8287641210
O         -0.4464869106        13.9483527901         9.8536916623
O          4.2431730617        14.6580213835         9.4263468363
C          2.6320110463        10.1865263502         8.5148466943
C          2.9208718297         9.3144690202         9.5970344227
H          3.2344096307        10.0829568983         7.5991988292
C          2.3847515660         9.5333986668        10.9053891989
H          3.6366400142         8.4140480019         9.4091323274
O          2.6666389282         8.4453274873        11.8469429170
H          2.1417043777         8.6164128705        12.6706438968
O          1.7435747933        10.5046422868        11.2771892455
C         -0.9173311522        13.1684979596        11.0027917872
H         -1.3790673891        12.2245283942        10.6760275174
H         -0.0691931461        12.9944997155        11.6907495995
H         -1.7403669488        13.7512614006        11.5368267495
C          4.1508111950        15.9487493683        10.1375583619
H          3.5287439530        15.8567619027        11.0170975976
H          5.2168206558        16.1332418479        10.3748326552
H          3.7931605019        16.6934843102         9.4236392971
          28
ANG Step:       1914 Time:    39563.1386308348
C          1.8129822998        14.3731131662         9.5062411186
C          3.1706207505        13.8529550733         9.2852188496
C          3.3180520277        12.5479128898         8.8793566280
C          2.3208835096        11.6615054478         8.7420101477
C          0.9924364768        12.0543202062         9.1241822444
C          0.7401672498        13.3915358918         9.4541614732
H          4.3430996882        12.2382496797         8.6183176337
H          0.1676749968        11.3627154474         9.0715128206
O          1.4432994815        15.5765510477         9.9447641574
H          0.4600487726        15.5759644891         9.9080594384
O         -0.4117942712        13.9483771403         9.8558032973
O          4.3301168842        14.6504045463         9.4329638162
C          2.6031481699        10.2033977668         8.5234674976
C          2.9328377452         9.3330973708         9.5913440810
H          3.1734971545         9.9977210338         7.6227756010
C          2.4880655461         9.5170051700        10.9410917170
H          3.5334830531         8.4821818225         9.3511799724
O          2.6770139041         8.4575624726        11.8728202326
H          2.0079954301         8.6360195411        12.5263081827
O          1.7742297493        10.4625337992        11.2937932650
C         -0.9413586787        13.2061578626        11.0654157187
H         -1.2614231799        12.2130942541        10.7902751819
H         -0.1038488729        13.1570526953        11.7032957423
H         -1.7918035322        13.7652632119        11.4262180311
C          4.1550829754        15.9624257024        10.1637380679
H          3.4926354568        15.8560482590        11.0465903155
H          5.2112702443        16.1061477251        10.4579326325
H          3.8642848419        16.7896405592         9.5049317971
          28
ANG Step:       1924 Time:    39769.8425944232
C          1.8086946855        14.3449627091         9.5013012530
C          3.1638314488        13.8922307989         9.2694766150
C          3.3662424566        12.5501937648         8.8855384737
C          2.3162421915        11.6522072643         8.7696164525
C          0.9500082363        12.0934354750         9.0839611571
C          0.7461042836        13.4003481218         9.4428583189
H          4.3538207104        12.1697066665         8.7159169988
H          0.1393183221        11.3648023926         9.0192978066
O          1.4332669397        15.6159772068         9.9302998936
H          0.4466237458        15.4714797263        10.0524053158
O         -0.4183003180        13.9306620855         9.8750521381
O          4.3518523759        14.6429029204         9.4432204100
C          2.5904203727        10.2083100277         8.5233970846
C          2.9408692090         9.3625288433         9.6008042742
H          3.0692354072         9.9371937056         7.5775687486
C          2.5716483059         9.4723206249        10.9537520928
H          3.4907552831         8.4015963812         9.3135767329
O          2.6901276870         8.4731588788        11.8743879361
H          1.9124445122         8.7020828734        12.4508875351
O          1.7830161556        10.4534777300        11.3197891363
C         -0.9524215680        13.2478559955        11.0845154218
H         -1.1406733445        12.1850451835        10.8395219555
H         -0.1453091907        13.2549164189        11.8934483986
H         -1.8277372259        13.8587993855        11.3863086715
C          4.1862522939        15.9464069617        10.1735541619
H          3.5068918716        15.8558914489        11.0027241333
H          5.1716048100        16.1665000374        10.5922580596
H          3.8408005813        16.7735755159         9.5459164627
          28
ANG Step:       1935 Time:    39997.2169543706
C          1.8067324671        14.3399212400         9.5131588207
C          3.1962794547        13.9521855594         9.2548410118
C          3.4069647901        12.5636126800         8.8919825669
C          2.2967423163        11.6368246661         8.8139417232
C          0.9266032879        12.1358921605         9.0259867509
C          0.7703979475        13.4022284972         9.4285177601
H          4.4377542134        12.1463674096         8.8506597578
H          0.1422916928        11.3923276863         8.9975050176
O          1.4319241633        15.6278140759         9.9019803930
H          0.5162213761        15.4302541920        10.2162156082
O         -0.4504451234        13.9079431086         9.9095490228
O          4.3277041715        14.6426848777         9.4622483764
C          2.5851482153        10.2047026135         8.5319711039
C          2.9703475407         9.3664495820         9.6045756154
H          2.8975923493         9.9505639540         7.5225239342
C          2.6032136823         9.4824224591        10.9597014758
H          3.3562463913         8.4197741451         9.3087937370
O          2.7089369759         8.4806271559        11.8743422920
H          1.9286062543         8.7489886031        12.3989004630
O          1.8096631674        10.4319594275        11.3446706770
C         -0.9433022190        13.3001540324        11.1039138894
H         -1.1083295167        12.2525255064        10.9230346346
H         -0.3121903555        13.3818153553        11.9727582155
H         -1.8572900217        13.8492439859        11.3170851378
C          4.2320036381        15.9120612936        10.1805795752
H          3.4726048200        15.7854026215        10.9781158076
H          5.1709603940        16.2173931713        10.6689471877
H          3.8324335192        16.6719154421         9.5049925901
          28
ANG Step:       1945 Time:    40203.9209179590
C          1.8245336414        14.3771141266         9.5304669085
C          3.2294306408        13.9640880096         9.2396877982
C          3.4038685184        12.5784453415         8.9063097500
C          2.3023112397        11.6502863491         8.8484726789
C          0.9433667189        12.1449339943         8.9702865128
C          0.7653048035        13.4152202483         9.4328242135
H          4.4124374978        12.2201606887         8.9384688205
H          0.1091694506        11.4453586518         8.9797662177
O          1.4415256731        15.6062865277         9.8722312055
H          0.5498027693        15.5004737068        10.2994151275
O         -0.4697873368        13.8942624472         9.9327390988
O          4.2978373794        14.6545788421         9.4848282971
C          2.5806033911        10.2027469397         8.5569121954
C          2.9972788076         9.3552018692         9.6023694991
H          2.7712499127        10.0023270455         7.5011989989
C          2.5836752500         9.5346303212        10.9513487609
H          3.3484949804         8.3162234796         9.2882418524
O          2.7340037789         8.4756210695        11.8721345081
H          2.0124473315         8.7352460376        12.4652948254
O          1.8443417223        10.4143009988        11.3632198505
C         -0.9426901957        13.3418179862        11.1216950466
H         -1.1491997060        12.2562518626        11.0256277606
H         -0.3380962910        13.5539497872        12.0455066770
H         -1.9523273180        13.7966791519        11.2594741717
C          4.2512015900        15.8779029495        10.1926051622
H          3.5062925642        15.7458479321        10.9566424338
H          5.2294157431        16.1515577261        10.5973567786
H          3.8945906302        16.6070794226         9.4550447895
          28
ANG Step:       1957 Time:    40451.9656742652
C          1.8488207663        14.3974367251         9.5356878094
C          3.2089200956        13.9313785726         9.2324403077
C          3.3577963418        12.6017036174         8.9323238498
C          2.3372023522        11.6831919830         8.8648837493
C          0.9824841355        12.1563298180         8.9350127582
C          0.7463629424        13.4327102960         9.4531428880
H          4.4175102725        12.2523711763         8.9526004036
H          0.1109551813        11.4930152337         8.8989433260
O          1.4661453634        15.5913381034         9.8494017586
H          0.5632929009        15.5872906008        10.2216325433
O         -0.4655223241        13.8917128949         9.9311233607
O          4.2904291627        14.6635110145         9.5049739061
C          2.5749792971        10.2188808411         8.5977191738
C          3.0232746852         9.3174912242         9.5975660794
H          2.7366922967        10.0415752170         7.5334100030
C          2.5613706005         9.5413169958        10.9245798683
H          3.3632074335         8.3145633445         9.3589714756
O          2.7761023157         8.4663027142        11.8551482152
H          2.1892026777         8.6833698686        12.6366983699
O          1.8627332935        10.4477219413        11.3929798259
C         -0.9756704603        13.3722835371        11.1711028750
H         -1.0541913207        12.2950372953        11.1738174684
H         -0.3506607558        13.7057652750        11.9747407290
H         -1.9983253632        13.7584052025        11.2192937214
C          4.2529168888        15.8555176304        10.1986974465
H          3.5748603186        15.8345462432        11.0843378968
H          5.3280656598        15.9765721528        10.4643476995
H          3.9952620235        16.6697588851         9.5100326865
          28
ANG Step:       1967 Time:    40658.6696378537
C          1.8411834262        14.3585238063         9.5245873674
C          3.1560932146        13.9266118988         9.2530487538
C          3.3490907362        12.6088618621         8.9504504833
C          2.3497960117        11.6918806895         8.8601814416
C          1.0034757533        12.1911358042         8.9470748132
C          0.7510425167        13.4286863942         9.4674138878
H          4.3392781860        12.2571141232         8.8992250743
H          0.2028976154        11.4837799634         8.7891225087
O          1.5015998592        15.6156428064         9.8435461575
H          0.5242643638        15.5667626101        10.0437765971
O         -0.4541687704        13.8973444798         9.9125919882
O          4.2858426945        14.6439267666         9.5036977166
C          2.5798294159        10.2404720511         8.6279953963
C          3.0205632624         9.3002477220         9.6052799045
H          2.8304481523        10.0415157585         7.5861912678
C          2.5407849034         9.5000898269        10.9241527979
H          3.4246390683         8.2804026618         9.3777617907
O          2.8185170772         8.4594329252        11.8300215904
H          2.4172880885         8.6876381481        12.6556679750
O          1.8700418573        10.5045065350        11.4125268555
C         -1.0098910787        13.3876975899        11.2074064591
H         -0.8793380299        12.2843334063        11.2785150543
H         -0.3545025708        13.8529283215        11.9944460692
H         -2.0266370279        13.7902595159        11.2520710313
C          4.2666948444        15.8664056671        10.2117690988
H          3.7130129088        15.9262215587        11.1396293037
H          5.3209204273        15.9099815535        10.4563978487
H          4.0185410833        16.7592961418         9.6171581244
          28
ANG Step:       1977 Time:    40865.3736014422
C          1.8024430720        14.3301834110         9.5209557107
C          3.1226265336        13.9423481903         9.2924908328
C          3.3639464579        12.6019293902         8.9589480408
C          2.3408977610        11.6862341870         8.8513596946
C          1.0121630199        12.2134358325         8.9778738364
C          0.7639828438        13.4171965881         9.4827802032
H          4.4097242415        12.2408222638         8.8332711473
H          0.2697470518        11.4703206532         8.7042947431
O          1.5392126877        15.6412592901         9.8410586263
H          0.5524914389        15.5581862676         9.8301735240
O         -0.4535640328        13.9059825192         9.8931728212
O          4.2600136670        14.6159111437         9.4929418501
C          2.6000824664        10.2489078135         8.6434445113
C          2.9904326398         9.2976531490         9.6248342451
H          2.9879910876        10.0462639444         7.6447457332
C          2.5016737421         9.4763229196        10.9593619411
H          3.4675197340         8.3830549074         9.3498574470
O          2.8676451238         8.4510051534        11.7925355306
H          2.5971138152         8.7826054630        12.6965258453
O          1.8946202745        10.5406976102        11.4122291059
C         -1.0101957412        13.4102290113        11.2328291267
H         -0.7934511139        12.3576080060        11.3365544919
H         -0.4528824752        13.9439732484        12.0253752471
H         -2.0451881395        13.7466936715        11.2773849449
C          4.3053896105        15.8963582124        10.2297722378
H          3.7579249207        15.8850215413        11.1906412006
H          5.3612636700        15.9713002679        10.5167527522
H          3.9926879241        16.7678324952         9.6637335739
          28
ANG Step:       1988 Time:    41092.7479613895
C          1.7710727341        14.3584265484         9.5403089081
C          3.1270294328        13.9293998466         9.3355018713
C          3.3920117616        12.5803207199         8.9591628800
C          2.3460108418        11.6856652961         8.8482984923
C          1.0144451177        12.1761618684         9.0005807847
C          0.7523624458        13.4214009974         9.5152377331
H          4.3994729396        12.3046194054         8.8213050111
H          0.2128567010        11.5127316485         8.7322314590
O          1.5687876476        15.6458001769         9.8304644279
H          0.5916542172        15.7431245924         9.7156618059
O         -0.4727941286        13.9142822312         9.8833013640
O          4.2236721973        14.6150339191         9.4890309705
C          2.6354453724        10.2363492550         8.6371645721
C          2.9248513633         9.3315675441         9.6593552832
H          3.1389402380        10.0699349837         7.6880229711
C          2.4607285432         9.4914760867        10.9874366539
H          3.5054291610         8.4346427213         9.3142810498
O          2.9151572246         8.4450118243        11.7704721836
H          2.8237670910         8.8209823882        12.6576332846
O          1.9367804216        10.5452619539        11.4015257184
C         -0.9767282523        13.4549946748        11.2357389618
H         -0.7819976352        12.3689098588        11.3622770586
H         -0.5533970589        14.0565413242        12.0696002744
H         -2.0647423156        13.6045691143        11.2200036746
C          4.3580179336        15.9175222649        10.2605468665
H          3.7438835770        15.7492671253        11.1391085114
H          5.4060630436        16.0657170071        10.5025454358
H          3.9425898998        16.7139111079         9.6217133486
          28
ANG Step:       1998 Time:    41299.4519249780
C          1.7744029919        14.3887109194         9.5700897055
C          3.1356936798        13.8890751759         9.3675794653
C          3.3935368023        12.5698543416         8.9624352206
C          2.3713927029        11.6786807035         8.8477640332
C          1.0069010973        12.1277992849         9.0211129389
C          0.7330306235        13.4316135679         9.5458558069
H          4.4720657342        12.3117488624         8.8363941583
H          0.1094168887        11.5216625776         8.8427821658
O          1.5818106936        15.6552300379         9.8172363537
H          0.6655707072        15.9741077654         9.7271579359
O         -0.5059928945        13.9172700755         9.8897536696
O          4.2131186409        14.6483697695         9.4957478070
C          2.6674039963        10.2271255653         8.6105053082
C          2.8622580561         9.3635761724         9.6756270492
H          3.2384262190        10.0653819447         7.6999814107
C          2.4548862835         9.5081634462        10.9761473762
H          3.4434814608         8.5157763722         9.4143398073
O          2.9508271002         8.4447132262        11.7688818980
H          3.0086460974         8.7798114461        12.6825959305
O          1.9664984726        10.5468912213        11.4075025935
C         -0.9464276458        13.4958889018        11.2152548854
H         -0.7141727435        12.4450288418        11.3764510552
H         -0.5696013360        14.1394483715        12.0466780489
H         -2.0340852453        13.4889081127        11.1179456536
C          4.3808900386        15.9105759083        10.2719872210
H          3.7524451423        15.7197273479        11.1405990035
H          5.4508611764        16.0853053286        10.4286555557
H          3.9317970522        16.6516722156         9.6371557083
          28
ANG Step:       1227 Time:    25362.5763323063
C          9.8728421424        -3.7184918531        -6.4014938258
C          9.0438222644        -2.9835325217        -7.3124944991
C          7.7119308915        -2.6757437543        -6.9627556526
C          7.1764055327        -2.9919469578        -5.7038984494
C          7.9615432088        -3.8610256423        -4.8773383737
C          9.3093048686        -4.1239971381        -5.1861515741
H          7.1795050862        -2.1589278767        -7.7597880131
H          7.5549519858        -4.1023721611        -3.8706283437
O         11.1773270290        -3.9638111549        -6.7190606786
H         11.5543215591        -4.3389513903        -5.8996575816
O         10.0098512312        -4.8194939341        -4.3050204961
O          9.4810436035        -2.3844267858        -8.4555285326
C          5.6717447511        -3.0561738842        -5.4501357950
C          5.0648015960        -4.3248869402        -5.5273430884
H          5.0711982004        -2.1683141306        -5.6330945483
C          5.8525784208        -5.5522621309        -5.6099278701
H          3.9777742456        -4.5663763512        -5.5126212545
O          5.0667732442        -6.6853640935        -5.4431340946
H          5.5451789947        -7.5078874667        -5.5611619709
O          7.0959538959        -5.7183795138        -5.8338615669
C          9.4038931438        -5.6488442669        -3.2970176187
H          8.5420219889        -6.1961980483        -3.6728732512
H         10.1321827438        -6.3918279524        -2.9423067833
H          9.1407560116        -5.0628636335        -2.3640092228
C         10.3466610385        -3.2871920304        -9.3614105343
H          9.9644359688        -4.3485292790        -9.3673948522
H         10.2024216162        -2.7964317279       -10.3324729005
H         11.3767231309        -3.1792693707        -9.0429965690
          28
ANG Step:       1237 Time:    25569.2802958948
C          9.8844200331        -3.7308413786        -6.3911496980
C          9.0398427258        -2.9815057359        -7.2923230620
C          7.7186897288        -2.6771314302        -6.9836779730
C          7.1680485278        -3.0070865768        -5.6855492128
C          7.9507683014        -3.8355797403        -4.8751613824
C          9.2934005477        -4.1058367985        -5.1697732284
H          7.1307400545        -2.1715291187        -7.7620926912
H          7.6774402235        -4.1844482420        -3.9160986753
O         11.2019327281        -3.9763258067        -6.7326501661
H         11.6162841174        -4.1505196522        -5.8651511440
O         10.0472247606        -4.8147270421        -4.3158111388
O          9.5014326677        -2.4324847742        -8.4813407228
C          5.6410320579        -3.0744810278        -5.4052511471
C          5.0368187477        -4.3718776530        -5.5382916541
H          5.0203053788        -2.2059319651        -5.6113632607
C          5.8185080867        -5.5150468373        -5.6371095423
H          3.9846113087        -4.5088975020        -5.4338383087
O          5.0723665499        -6.6640044941        -5.4908532844
H          5.6153172532        -7.4762158269        -5.4303234384
O          7.0746989527        -5.7217837646        -5.8499555598
C          9.4443410973        -5.6157806962        -3.3100906175
H          8.6227304158        -6.1762945270        -3.7879431010
H         10.1883736033        -6.3494561559        -2.9974804828
H          9.0770596957        -5.0309077303        -2.4905213818
C         10.3473334826        -3.2813189722        -9.3301229329
H          9.8863424845        -4.2402562295        -9.2359172368
H         10.2277067901        -2.7625799767       -10.2738495237
H         11.4186025834        -3.2299093094        -9.0695463270
          28
ANG Step:       1248 Time:    25796.6546558421
C          9.8799591394        -3.7334934207        -6.3849045444
C          9.0676996492        -2.9660566389        -7.2819413614
C          7.6984156190        -2.6748063983        -6.9550269071
C          7.1158035485        -3.0302269233        -5.7252727667
C          7.9577493722        -3.8039957593        -4.8712200985
C          9.2916908844        -4.0903982172        -5.1803076408
H          7.0620367424        -2.1967266837        -7.7017147690
H          7.6052653249        -4.2206510188        -3.9090878348
O         11.2175275796        -3.9881618665        -6.7314367267
H         11.7489465840        -4.0005114034        -5.9062721437
O         10.1130717490        -4.8091879869        -4.3255583690
O          9.5208157855        -2.4991344924        -8.4861097439
C          5.6244402235        -3.1032899128        -5.3768698622
C          5.0364054897        -4.3824683127        -5.5402392557
H          5.0115679749        -2.2198569154        -5.5470665119
C          5.7863077198        -5.5167589498        -5.6724815446
H          3.9498266417        -4.4434014890        -5.3459211760
O          5.0651304392        -6.6501826272        -5.5424747208
H          5.7847872744        -7.3031527547        -5.3398320051
O          7.0452292465        -5.7124703153        -5.8561171985