          28
ANG Step:       1186 Time:    24515.0900815935
C          4.6404443783        12.2415420992         2.8591369077
C          4.1209398843        11.5813045139         4.0070373594
C          5.0066352514        11.1639623113         4.9923205591
C          6.3879453633        11.1866013768         4.7529153382
C          6.8982852585        11.6351671689         3.4404716939
C          5.9611375588        12.1404294278         2.5092624695
H          4.6383724017        10.6798826793         5.8698209831
H          7.9760927285        11.6219334160         3.2575750586
O          3.7485475292        12.7673724755         2.0010267355
H          4.1829065563        13.0139757479         1.1486626674
O          6.3650413998        12.7743301076         1.3295145202
O          2.7988443321        11.3310234571         4.0180230354
C          7.5030319437        11.0589541347         5.7961343227
C          7.9878508263        12.2913617290         6.2620321283
H          7.9400606328        10.1392951666         6.0414471699
C          7.8283615053        13.5627048548         5.6395051073
H          8.5761027303        12.3886217043         7.2066842289
O          8.3460186716        14.5370405041         6.4899030044
H          8.3147438307        15.3418234001         5.9652871550
O          7.2884586357        13.9277100860         4.5902733602
C          7.0110291077        13.9665587635         1.4788426524
H          6.4194598276        14.8277607155         0.9967559762
H          7.1699710454        14.2507416071         2.5139455320
H          7.9619587208        13.9534418858         0.9503897003
C          2.2184379674        10.8446987258         5.2532067853
H          2.6011575129         9.9535629560         5.6473745307
H          2.3000733672        11.5964307578         5.9824835396
H          1.1698910513        10.7068162145         4.9947216679
          28
ANG Step:       1196 Time:    24721.7940451820
C          4.6762025935        12.2364628078         2.8548745808
C          4.1244412616        11.5972849948         4.0180303844
C          5.0395139098        11.1831375663         5.0237490530
C          6.4126372845        11.1651421509         4.7072356839
C          6.8779427635        11.6297576496         3.4600793789
C          6.0221941041        12.1171280826         2.5136503506
H          4.6096705323        10.5805105130         5.8400337852
H          7.9247496632        11.5217164045         3.2530317995
O          3.7452897189        12.7609793447         2.0233500875
H          4.2245541865        12.9336496548         1.1878284398
O          6.3522743008        12.7511629874         1.3290687695
O          2.7854092161        11.3655237732         4.0201297843
C          7.4827083317        11.0694962168         5.7576436587
C          8.0265825602        12.2910989586         6.2613665611
H          7.8261376740        10.0499740165         6.1088912635
C          7.8212743179        13.5700490698         5.6645307146
H          8.6146225889        12.2948802722         7.1409984777
O          8.2966976526        14.5460673134         6.5157187200
H          8.3841945883        15.3796811838         6.0061298910
O          7.2908215271        13.9342937309         4.5939565425
C          6.9825794137        13.9920165320         1.4601210966
H          6.3928529959        14.7404616804         1.0085154191
H          7.0962932406        14.2849715419         2.5359502057
H          7.9502603928        13.9914908729         0.9308415313
C          2.1753720348        10.8395070546         5.2872255820
H          2.6356871493         9.8278352498         5.5538435375
H          2.3703791061        11.6745449602         6.0562830808
H          1.1237727693        10.8003065862         5.0202243131
          28
ANG Step:       1261 Time:    26065.3698085071
C          4.6065362298        12.0813258448         2.8334897310
C          4.1766068623        11.5049496555         4.0938318900
C          5.1208004688        11.1933273919         5.0474158462
C          6.4861167926        11.1807177521         4.6823795366
C          6.8606342139        11.4742948056         3.3314349248
C          6.0015624073        12.0886883084         2.4522626490
H          4.8379400340        10.9195989865         6.0834738680
H          7.8959177478        11.4152317922         2.9987224571
O          3.7730004009        12.7113312940         2.0220445358
H          4.3802814978        13.0202059679         1.2950573815
O          6.3310893407        12.7145712093         1.3238546850
O          2.8537654236        11.6598855119         4.2567354648
C          7.5440448681        11.0972680318         5.7358120190
C          8.0751288985        12.2620685191         6.3185853358
H          7.8922968406        10.0634884433         5.9142691800
C          7.7967076408        13.6087202972         5.8129682037
H          8.6155302375        12.2346996388         7.2391632461
O          8.1235551858        14.5968464711         6.6988255323
H          7.8268991708        15.4054870047         6.2484152654
O          7.3135272674        13.8945754373         4.6978984014
C          6.8081213483        14.0331862804         1.3540777222
H          6.0914348506        14.6204364176         0.8484520913
H          6.9479209912        14.3107239033         2.3992817973
H          7.7962643175        14.0658575272         0.8682479311
C          2.1436867219        10.9409481844         5.2770582205
H          2.2102527447         9.8309451784         5.1234130770
H          2.4963283208        11.1248256099         6.3446997851
H          1.0896075990        11.2135705469         5.2180922434
          28
ANG Step:       1272 Time:    26292.7441684544
C          4.6483108406        12.0755369033         2.8078887161
C          4.2013231317        11.5266698811         4.0719952517
C          5.1672364970        11.2043406117         5.0342322895
C          6.4899518567        11.1502347078         4.6987525589
C          6.8602169519        11.4654109875         3.3335661060
C          5.9669241180        12.0578091921         2.4306554046
H          4.9524619865        10.7844545998         5.9912286610
H          7.8973428733        11.3249787839         3.0718422170
O          3.7594940835        12.7026407034         2.0081385506
H          4.2116313502        12.9927866199         1.1837303573
O          6.2927038342        12.6874491879         1.3259366010
O          2.8523400155        11.7113597525         4.2873880705
C          7.5710543407        11.1286705801         5.7342412610
C          8.0675510660        12.2734464459         6.3737981866
H          8.0273313484        10.1496408503         5.8457160941
C          7.8100708033        13.5930252092         5.8291437991
H          8.6032160662        12.1540372672         7.3374280567
O          8.1033068077        14.5887081429         6.7234615027
H          7.7157780019        15.3717263996         6.3107356188
O          7.3003132404        13.8963757759         4.7109427826
C          6.8017673668        14.0477097127         1.3612051969
H          6.0294631063        14.6852034566         0.7923817794
H          6.9409143836        14.4285499508         2.4125554426
H          7.7263065908        14.0597271021         0.7917999602
C          2.1303934914        10.9518353121         5.3072329182
H          2.2102690353         9.9060090608         5.0463604089
H          2.5160885958        11.0415588667         6.3363969001
H          1.0692467927        11.2272527740         5.2862741211
          28
ANG Step:       1283 Time:    26520.1185284018
C          4.6463126354        12.0854012902         2.7807310044
C          4.1931843496        11.5732556947         4.0605915687
C          5.1932446680        11.1736765633         5.0190617798
C          6.5279978916        11.1559822953         4.6936741565
C          6.8615476919        11.4684907367         3.3296068490
C          5.9640511207        11.9991209128         2.4659229543
H          4.9150512011        10.7765304942         6.0047867835
H          7.9216007889        11.3302508371         3.1242754044
O          3.7397304475        12.6865907805         2.0006909773
H          4.1133997553        12.9137505144         1.1460987451
O          6.2631375138        12.6664032494         1.2882608118
O          2.8613895831        11.7538750232         4.3228503673
C          7.5929481141        11.1357012470         5.7341584698
C          8.0503810823        12.2991149612         6.4015076104
H          8.1193446267        10.2003269240         5.9308844055
C          7.8242992904        13.5497646351         5.8533486172
H          8.5963366290        12.1347783119         7.3105196279
O          8.0829318093        14.5916354012         6.7526095939
H          7.6444347491        15.3825611119         6.3679308915
O          7.2893762761        13.8935152923         4.7321253463
C          6.7833675126        14.0717175279         1.3669609538
H          6.0967241597        14.7094328811         0.8547944997
H          6.9359920601        14.4587497472         2.3563857449
H          7.6941856022        14.0609188625         0.7513305298
C          2.1306629844        10.9531021565         5.3262310770
H          2.1995772596         9.9102775707         4.9408247941
H          2.6279790563        11.0820635129         6.3369242984
H          1.1101268427        11.3491790498         5.2905098126
          28
ANG Step:       1294 Time:    26747.4928883491
C          4.5893092254        12.0974523550         2.7822872327
C          4.1763910404        11.6232804612         4.0788354124
C          5.1842410538        11.1171268521         4.9959779336
C          6.5716175123        11.1846258999         4.6818517261
C          6.8930288187        11.4699657729         3.3420425779
C          5.9870052132        11.9684788178         2.4688000283
H          4.8270017544        10.9161114798         5.9990589289
H          7.9297708077        11.4682444288         3.0528858117
O          3.7124383983        12.6650309521         1.9983035981
H          4.1726773631        12.8196993175         1.1150770324
O          6.2441876314        12.6529843363         1.2443903690
O          2.8834836968        11.7898741427         4.3552947265
C          7.6204012383        11.1261410828         5.7447083036
C          8.0273332978        12.2905435275         6.3971644910
H          8.0772016371        10.1882459185         6.0853480960
C          7.8161874636        13.5572610877         5.8671765902
H          8.6450476177        12.2154125469         7.3012806412
O          8.0634713085        14.5965345133         6.7837242348
H          7.6280696906        15.3527501911         6.3826947196
O          7.2884405795        13.8754421292         4.7715821427
C          6.7662364169        14.0697809798         1.3585433212
H          6.0114294253        14.7707707794         0.8671805337
H          6.9778170922        14.3701733528         2.4443939167
H          7.7007389098        14.0729886486         0.8055479574
C          2.1638168591        10.9624143414         5.3236442810
H          2.1278548810         9.9387079781         4.9730772626
H          2.6459658632        11.0867017748         6.2954390381
H          1.1818898106        11.4395929166         5.3215436930
          28
ANG Step:       1304 Time:    26954.1968519376
C          4.5556286037        12.0953630627         2.8137294054
C          4.1837816614        11.6529119768         4.1191709493
C          5.1627794869        11.0816163463         4.9561794098
C          6.5809933414        11.2023399096         4.6944583276
C          6.9415454248        11.4810119822         3.3358630853
C          5.9841009258        11.9803706258         2.4336556345
H          4.8270739274        11.0147830755         5.9992928994
H          7.9663793266        11.6232012256         2.9818142165
O          3.6857759498        12.6461504938         1.9814845183
H          4.2383303897        12.7564261643         1.1918354130
O          6.2339323530        12.6421827166         1.2168183076
O          2.8999448790        11.8164031171         4.3815419560
C          7.6454789660        11.1045655752         5.7576097661
C          8.0166647435        12.2719977958         6.3908575867
H          7.9280936115        10.1315196239         6.1567063349
C          7.7968241128        13.5917166445         5.8914096409
H          8.6506975034        12.2917967584         7.2584927286
O          8.0486711606        14.5983482060         6.8121781824
H          7.6370740285        15.3639621411         6.3572247916
O          7.2856365792        13.8573969631         4.8015208742
C          6.7448926020        14.0513440589         1.3578945652
H          6.0167015949        14.7072743038         0.9656314427
H          6.9425233621        14.2108512314         2.4115357449
H          7.7114831128        14.1035466572         0.8309347472
C          2.2064202619        10.9938912760         5.3089979273
H          2.0679099960         9.9355860401         5.0285985766
H          2.6457307582        11.0162003525         6.3322991989
H          1.2281663307        11.4586303871         5.3929331824
          28
ANG Step:       1316 Time:    27202.2416082438
C          4.5703714459        12.0877230160         2.8481480197
C          4.2150108108        11.6666484316         4.1580656815
C          5.1564260338        11.0778951500         4.9277480703
C          6.5666887817        11.2031781532         4.7030121282
C          6.9723627338        11.5268372671         3.2866544059
C          5.9586100243        12.0124555101         2.4063690484
H          4.9250953802        10.9706189500         5.9860492142
H          8.0104869418        11.7077070957         3.0403211385
O          3.6643144042        12.6161251032         1.9631629926
H          4.2687587249        12.7848616154         1.1805570550
O          6.2239179820        12.6265681947         1.1956112969
O          2.9071908564        11.8434012932         4.4113397921
C          7.6580063706        11.0697958575         5.7539989941
C          8.0203979891        12.2809791744         6.3965969133
H          7.7035888316        10.0491962101         6.2033312539
C          7.7713943294        13.5949371945         5.9483180228
H          8.6379837787        12.2294237881         7.2936238307
O          8.0306305766        14.6078494918         6.8414362348
H          7.7256076424        15.4125943569         6.3746533265
O          7.2683773502        13.8528855759         4.8101923842
C          6.7297461112        13.9912032260         1.3672038823
H          5.9466235714        14.7162112986         1.0140733604
H          6.8848920600        14.1117395483         2.5048607837
H          7.6523474712        14.1406212248         0.7984427123
C          2.2423119607        11.0320602088         5.3209325656
H          2.1226097785        10.0091421738         4.9664727916
H          2.7029934290        10.9710444143         6.3154992268
H          1.2543523973        11.4641987194         5.4518773281
          28
ANG Step:       1326 Time:    27408.9455718322
C          4.6070333943        12.0950253779         2.8386794230
C          4.2194494988        11.6756820853         4.1544719007
C          5.1977398444        11.0944969805         4.9562663218
C          6.5569812554        11.1969745728         4.6628715510
C          6.9499336318        11.5808357152         3.2532736720
C          5.9453944033        12.0332817081         2.4182957436
H          4.9606062813        10.8118476361         5.9826961029
H          8.0292240597        11.6937429214         3.1083367365
O          3.6694054332        12.5806230261         1.9612606668
H          4.1753221529        12.8417788454         1.1707534717
O          6.2133578531        12.6102417771         1.1799088234
O          2.9190839190        11.8713931602         4.4286300641
C          7.6457483763        11.0544479595         5.7362788297
C          8.0311762338        12.2739532393         6.4209991764
H          7.6351753526        10.0984900815         6.2282359159
C          7.7337038831        13.5803954878         5.9743514758
H          8.5730617184        12.1163346273         7.3483840168
O          8.0179079754        14.6183077176         6.8631945751
H          7.8303036958        15.4419467588         6.3984207675
O          7.2534062745        13.8584255087         4.8222124388
C          6.7066096929        13.9425725240         1.3932144648
H          5.9667553437        14.6556405577         1.0833328417
H          6.8936391493        14.1307490018         2.4298597454
H          7.5965746918        14.1148653308         0.7695578575
C          2.2531810565        11.0503621273         5.3559668905
H          2.2117599084        10.0741944618         4.8444207650
H          2.8246456522        10.9687761363         6.3033052259
H          1.2582750553        11.4785314191         5.4904112472
          28
ANG Step:       1336 Time:    27615.6495354207
C          4.6289086176        12.1134111958         2.8090709016
C          4.2169917672        11.6804475752         4.1333215071
C          5.2471551554        11.1246982773         5.0092234972
C          6.5640249060        11.1926584145         4.5968519160
C          6.9101111894        11.6269686893         3.2645603565
C          5.9495158186        12.0517286677         2.4292040552
H          4.9692417379        10.6527024658         5.9450540269
H          7.9643048140        11.6572808062         3.0718728964
O          3.6845041722        12.5397779596         1.9754728905
H          4.1007033323        12.8707806240         1.1480160317
O          6.2000391064        12.5886556647         1.1721100269
O          2.9409913253        11.9094606939         4.4367761481
C          7.6233160102        11.0736294335         5.7069641965
C          8.0264048244        12.2312271766         6.4438867404
H          7.6811171134        10.1267942169         6.2698493170
C          7.6889542328        13.5723552552         5.9776161535
H          8.4992075794        12.0738913206         7.4214603295
O          8.0076349095        14.6194100245         6.8832906880
H          7.9223746583        15.4535411926         6.3669479245
O          7.2416638521        13.8652266175         4.8497710800
C          6.6887294161        13.9056203271         1.4068265012
H          5.8803819340        14.6659341408         1.0922939818
H          7.0029856388        14.1575235943         2.4620216292
H          7.5496544518        14.0440964188         0.7675892319
C          2.2690991433        11.0538570508         5.3867241270
H          2.2189121280        10.0911595715         4.8516944804
H          2.8906171562        10.9720077848         6.3508934368
H          1.2624329411        11.4876592905         5.5540763781
          28
ANG Step:       1347 Time:    27843.0238953680
C          4.6248928541        12.1286435794         2.7984700946
C          4.2426311316        11.6722524217         4.1256689042
C          5.2626212040        11.1687831478         5.0298777029
C          6.5841983987        11.1925442392         4.5670305331
C          6.8848165684        11.6581796412         3.3089402775
C          5.9544442063        12.0714741724         2.4113513618
H          5.0178769260        10.6145168794         5.9282851894
H          7.9112114417        11.6445074440         2.9326298903
O          3.6918327376        12.5003830516         1.9903036264
H          4.0856215284        12.8379853537         1.1495717132
O          6.1877897121        12.5606600447         1.1782369150
O          2.9647987886        11.9504247044         4.4431540861
C          7.6067548475        11.0997038442         5.6726021143
C          7.9890149811        12.1965210266         6.4485537852
H          7.7424867025        10.1595453611         6.1710058116
C          7.6625894200        13.5508085248         6.0039579846
H          8.4029086355        12.0957448280         7.4471366879
O          7.9962887115        14.6092332326         6.8977350797
H          7.9954739670        15.3821928273         6.3259740594
O          7.2239655041        13.8761872617         4.8761093956
C          6.6752713556        13.9071210366         1.4045812333
H          5.9051243293        14.5890673735         1.1551560204
H          7.0351023501        14.0563178398         2.4165416200
H          7.5332114444        14.0102921913         0.7181239300
C          2.3020918223        11.0560109027         5.4131633581
H          2.1500488650        10.0575861433         4.9997902580
H          2.8455529627        10.9805952826         6.3471771505
H          1.3353492390        11.4915052086         5.6306733683
          28
ANG Step:       1359 Time:    28091.0686516742
C          4.6233294754        12.1214405001         2.8350812609
C          4.2856258371        11.6632499733         4.1490290292
C          5.2433525177        11.2101589816         4.9904528518
C          6.5930239499        11.2073710429         4.6221879253
C          6.8986515680        11.6816748557         3.3078795803
C          5.9370612924        12.0713413570         2.4060686193
H          5.0584353153        10.7771383084         5.9826168040
H          7.8944257130        11.6549576635         2.8974434821
O          3.6676075373        12.4743319579         1.9858590965
H          4.1346500686        12.7215181639         1.1807501321
O          6.1867307613        12.5414663695         1.1801769336
O          2.9852980653        11.9660178280         4.4589836380
C          7.6098641306        11.1057737917         5.6356699945
C          7.9147339699        12.2134289945         6.4381300000
H          7.8160105244        10.0488046480         5.9653987096
C          7.6580243156        13.5188620900         6.0522881879
H          8.3402025639        12.0771738019         7.4184590369
O          7.9842324171        14.5778077443         6.9077820717
H          8.0270045440        15.3169004820         6.2726821684
O          7.2006973928        13.8885333926         4.8995509743
C          6.6875485738        13.9165432595         1.3694275771
H          5.8537657692        14.6527766766         1.2060662903
H          7.0519400476        13.9515171885         2.4652296396
H          7.4876153182        14.0789102212         0.6408110935
C          2.3400277369        11.0728391165         5.4334288394
H          2.1437635980        10.0493298031         5.0863268755
H          2.9064067218        11.0149642557         6.3978011657
H          1.3928797537        11.5612797820         5.6566035309
          28
ANG Step:       1369 Time:    28297.7726152627
C          4.6124940986        12.1047014509         2.8685223536
C          4.2802177433        11.6823052818         4.1642830634
C          5.2413791576        11.2136298786         4.9734895254
C          6.5837481772        11.2518301608         4.6556538307
C          6.9194274341        11.6861826035         3.2832777470
C          5.9225835216        12.0500542574         2.4319243261
H          5.0089026698        11.0313311869         6.0108828767
H          7.9719617062        11.6842443246         2.9840914240
O          3.6394484842        12.4581477656         1.9822076045
H          4.1836751526        12.6142763714         1.1468535112
O          6.1945993053        12.5444170902         1.1661119051
O          3.0039870521        11.9479841137         4.4810769210
C          7.6348080601        11.0809679949         5.6213517707
C          7.8512911671        12.2235270865         6.4419413365
H          7.8766824288        10.0767406194         5.8421976485
C          7.6459055999        13.5249054826         6.0584943692
H          8.3565383788        12.0275952190         7.3898686901
O          7.9769456548        14.5403447382         6.9154886314
H          8.0073736081        15.2763210095         6.2744282990
O          7.1858500884        13.8913346756         4.9306778122
C          6.6976209293        13.9258842747         1.3407028531
H          5.8959811566        14.6367138011         1.2810091779
H          7.0742087829        14.0114397156         2.3374880308
H          7.4578041220        14.1530814366         0.5794966997
C          2.3711084556        11.1043170812         5.4593256892
H          2.2182043915        10.1087461456         5.0508127246
H          2.9766275807        11.0727459752         6.3590797051
H          1.4323319990        11.6206292358         5.6477812083
          28
ANG Step:       1380 Time:    28525.1469752100
C          4.5751055801        12.0897588880         2.8640791571
C          4.2385213769        11.7234023550         4.1665263621
C          5.2559889515        11.1962851924         5.0023256410
C          6.5753142664        11.3180527984         4.6319806670
C          6.9405447255        11.6721889937         3.2825161962
C          5.9326921226        12.0284088103         2.4468592655
H          4.9547763201        11.2526771677         6.0574182055
H          7.9969317839        11.7550805215         3.0912665744
O          3.6275312394        12.4393419019         1.9835103110
H          4.1158700701        12.5149313879         1.1526712335
O          6.2035449130        12.5615654981         1.1537839887
O          3.0193472860        11.9186327108         4.5054243649
C          7.6629734338        11.0711094782         5.6192542536
C          7.8097195279        12.1913478882         6.4686871886
H          7.9590413228        10.0246000754         5.9094824242
C          7.6206869617        13.5452564504         6.0393312103
H          8.4019331981        12.0380388445         7.3562261945
O          7.9747592337        14.5024119687         6.9298677462
H          7.9480149786        15.2903034904         6.3714395342
O          7.1679525674        13.8940374456         4.9582966508
C          6.7049292447        13.9292998171         1.3034279053
H          5.8349940447        14.6505147728         1.2810270052
H          7.2542764284        14.1229532814         2.2984780070
H          7.4012170289        14.1677484155         0.4950716206
C          2.4040313606        11.1528102549         5.4844755085
H          2.2887113942        10.1497610776         5.0194308122
H          3.0424705598        11.1015962001         6.4280835455
H          1.4339578773        11.6259840552         5.6794698695
          28
ANG Step:       1391 Time:    28752.5213351573
C          4.5541098740        12.0763014558         2.8212628836
C          4.2445043479        11.7429198584         4.1798410555
C          5.2463803756        11.2097126267         5.0370625445
C          6.5846092530        11.3493903522         4.6061325106
C          6.9446432278        11.6571871411         3.2995154449
C          5.9556911024        12.0265624883         2.4246996210
H          5.0594805409        11.2482451508         6.0922539430
H          7.9959555550        11.8267845851         3.0901198420
O          3.6200052668        12.4195022203         1.9876635181
H          4.0321268653        12.4896095211         1.0877724224
O          6.2110882512        12.5808086898         1.1628906918
O          3.0041177476        11.9131917601         4.5193959575
C          7.6802823785        11.0744092036         5.6193354340
C          7.7997000587        12.1610238124         6.5048033141
H          7.8835496308        10.1170932521         5.9970057081
C          7.6042676339        13.5164283655         6.0475343582
H          8.4609864725        12.0995641073         7.3837071750
O          7.9797501955        14.4776592535         6.9569083164
H          7.8597228088        15.3587057565         6.5348096278
O          7.1347040415        13.9090225435         4.9475045870
C          6.7102727965        13.9470169412         1.2745352447
H          5.8483026580        14.5966616319         1.2570598553
H          7.3125410080        14.0991163059         2.1332983140
H          7.3054552309        14.1091218112         0.3657840011
C          2.4306693211        11.1812629841         5.5277703203
H          2.3012019611        10.1741487169         5.1472309704
H          2.9845488310        11.1072458353         6.4678070911
H          1.4379466759        11.5877021788         5.7387275709
          28
ANG Step:       1402 Time:    28979.8956951047
C          4.5914080949        12.0497394095         2.7899651054
C          4.2872739781        11.7365816158         4.2016758593
C          5.2383978525        11.2647574046         5.0432585648
C          6.5988003625        11.3262713380         4.6274829553
C          6.9349840402        11.6629020976         3.2912448518
C          5.9660557343        12.0417924633         2.3857574484
H          5.1736330095        11.0676730227         6.1310052566
H          7.9699789199        11.8380275367         3.0231858981
O          3.5992415019        12.4039988158         1.9761662326
H          3.9619105162        12.5186200043         1.0695153935
O          6.2174225114        12.5921671618         1.1864981555
O          2.9701966889        11.9342477304         4.5185434194
C          7.6799550878        11.1033711832         5.6149408541
C          7.8207889936        12.1665352265         6.5378442849
H          7.6856183533        10.0566408182         6.0756467577
C          7.5880658352        13.4769525030         6.0604371400
H          8.4384505746        12.1072474237         7.4077548908
O          7.9888260210        14.4586141313         6.9953891474
H          7.7341756373        15.3253089857         6.6603512303
O          7.0988930665        13.9193011124         4.9334195900