          28
ANG Step:       1876 Time:    38777.6635691985
C         10.2354961768        -3.6516381748        -6.5535277971
C          9.2463973849        -3.3278879267        -7.5416007797
C          7.8448280547        -3.2496531979        -7.2281361635
C          7.4123568610        -3.5693024159        -5.9769690710
C          8.3703352305        -4.0556008437        -4.9779557793
C          9.7167051636        -4.0819561496        -5.2577699864
H          7.1324301080        -2.9915954637        -8.0257108403
H          7.9404036552        -4.3991796767        -4.0407072814
O         11.5233416133        -3.7524442557        -6.8617401670
H         11.8215346424        -4.4164191333        -6.2082631093
O         10.6996696388        -4.3489022676        -4.3970527311
O          9.5135072619        -2.9353561201        -8.8217859374
C          5.9319031470        -3.3583985075        -5.5950069829
C          4.9735719541        -4.4330060311        -5.7006686054
H          5.6033456686        -2.3123812543        -5.4885925272
C          5.2149365894        -5.6935047684        -6.2497735602
H          3.9822638417        -4.1820528616        -5.4207156468
O          4.1278840078        -6.5305852877        -6.3395785023
H          4.4743273617        -7.4266921640        -6.1722518642
O          6.4049591721        -6.1721919501        -6.5919860641
C         10.4324243442        -4.5594332946        -3.0146691970
H          9.4544719270        -5.1294323944        -2.8749431688
H         11.3256597026        -5.1261715878        -2.7100635009
H         10.4639345113        -3.6249201496        -2.4287172122
C         10.6703085715        -2.2622515330        -9.3565966067
H         11.4792027272        -3.0165219818        -9.3387162210
H         10.4797856322        -2.0460727819       -10.4308135333
H         10.9420374006        -1.4175854452        -8.6806679379
          28
ANG Step:       1885 Time:    38963.6971364282
C         10.2204042982        -3.6657059313        -6.5350361193
C          9.2574732118        -3.3221282688        -7.5561720166
C          7.8973882849        -3.2314108288        -7.2412498939
C          7.4108932510        -3.5712670990        -5.9915701040
C          8.3555579433        -4.0742405985        -5.0038594602
C          9.6887031282        -4.0527554365        -5.2697975499
H          7.1335922965        -2.9458487734        -7.9187991788
H          7.8296027328        -4.3927026891        -4.0979992654
O         11.5093780113        -3.7517372750        -6.8696949273
H         11.9441678966        -4.4477630137        -6.3217348479
O         10.6689068740        -4.3457739736        -4.3990951446
O          9.5306312680        -2.9484952842        -8.8224652662
C          5.9500204273        -3.3599572662        -5.6073262550
C          4.9976461539        -4.4131645120        -5.6526417662
H          5.5742578526        -2.3825837517        -5.4218845078
C          5.2816273168        -5.6942540216        -6.2774518488
H          3.9443507563        -4.2486378806        -5.3392073804
O          4.1058544866        -6.5325883005        -6.3333322883
H          4.4541237420        -7.4238030009        -6.1650479249
O          6.4110552345        -6.1912476520        -6.6150784497
C         10.4376119316        -4.5533899881        -3.0329814529
H          9.5068549947        -5.0168161102        -2.7772541506
H         11.2484546050        -5.1611082927        -2.5986314383
H         10.4765302502        -3.5841605521        -2.5092283523
C         10.6490868958        -2.2655879018        -9.3375908616
H         11.4979596654        -2.9589432875        -9.3993704816
H         10.4543936934        -1.9676586928       -10.3460934705
H         10.9474856307        -1.4857728170        -8.6422899141
          28
ANG Step:       1907 Time:    39418.4458563228
C         10.1644837112        -3.7032671184        -6.5755174815
C          9.2746554250        -3.2446830517        -7.5789399326
C          7.9506301739        -3.2055724342        -7.2535754501
C          7.3908660281        -3.5877709949        -6.0066574950
C          8.2609923539        -4.0741778394        -5.0694735706
C          9.6380223923        -4.0106555552        -5.2461985573
H          7.3932676813        -2.7587353037        -8.0655083358
H          7.9670054177        -4.3964071515        -4.0820877790
O         11.4673429767        -3.7583571301        -6.8946032265
H         12.0433873096        -4.2578899515        -6.2878609626
O         10.6440116537        -4.3753474049        -4.4256634616
O          9.5436782964        -3.0076305531        -8.8517336333
C          5.9933966470        -3.3898030435        -5.6322407136
C          5.1067751403        -4.4526900025        -5.6409520082
H          5.8588268520        -2.4627087994        -5.0916410292
C          5.3406112234        -5.6856641730        -6.2643305256
H          4.0702810415        -4.2702173395        -5.2647284683
O          4.1118074633        -6.5056951804        -6.3040273975
H          4.4135874144        -7.4027881505        -6.3714455687
O          6.4168077316        -6.2165443199        -6.6674903940
C         10.4268392579        -4.5051304172        -3.0002332935
H          9.4539663439        -4.8965807240        -2.8225512048
H         11.2105252485        -5.1963600517        -2.6646842670
H         10.5306844729        -3.4961763266        -2.5792984793
C         10.6784987206        -2.2743233809        -9.2695185953
H         11.5362044386        -2.8934954557        -9.5327291087
H         10.2505957067        -1.7327020143       -10.0833268066
H         10.9336796401        -1.4692613151        -8.5833248597
          28
ANG Step:       1968 Time:    40679.3400342125
C         10.0980186851        -3.6817609604        -6.6197527994
C          9.1445508667        -3.2950050998        -7.7223801138
C          7.8203005409        -3.1077796622        -7.3454226746
C          7.3943526928        -3.4865179346        -6.0259929179
C          8.3420397768        -4.0280024602        -5.0804796878
C          9.6666412333        -4.1250630673        -5.3185216843
H          7.1068507854        -2.6895848156        -8.0349813461
H          7.9482016131        -4.3304306773        -4.1059666079
O         11.3833496879        -3.7973973273        -6.8575576380
H         11.7839091917        -4.0069290591        -5.9819412580
O         10.6705769293        -4.4415725946        -4.4675798276
O          9.6880417759        -3.0756907667        -8.9731402554
C          5.9984882432        -3.3746825267        -5.6368344627
C          5.1524551030        -4.4737665886        -5.5701169971
H          5.8756748031        -2.5120376353        -5.0351096761
C          5.4185316396        -5.7655208991        -6.2391599532
H          4.1677230034        -4.3951960533        -5.0652771225
O          4.1951723373        -6.5411840011        -6.2337019101
H          4.3750655895        -7.0353821351        -7.0799527660
O          6.4291387854        -6.2078790634        -6.8144548983
C         10.3723310886        -4.3972485432        -3.0529140759
H          9.4067098759        -4.8701518966        -2.8547824835
H         11.2203923419        -4.9415225814        -2.5865527182
H         10.4223149184        -3.3474999147        -2.6663263635
C         10.8069342030        -2.1987981897        -9.1299630327
H         11.6105650619        -2.6799823621        -9.7204803341
H         10.3772506919        -1.4847541239        -9.8130199435
H         11.1694723140        -1.7801033998        -8.1604524502
          28
ANG Step:       1987 Time:    41072.0775650306
C         10.0758223397        -3.7157020876        -6.6666488043
C          9.2273248853        -3.3415475559        -7.6762535016
C          7.8480358508        -3.1617860261        -7.3639472363
C          7.3799911260        -3.4569823754        -6.0873809175
C          8.3112382064        -3.9986256598        -5.0740786614
C          9.6479982871        -4.0747909383        -5.3634982113
H          7.1978062980        -2.7303278168        -8.0807539168
H          7.7745791619        -4.2672535173        -4.1510587963
O         11.3887980588        -3.7828962614        -6.8724903370
H         11.7275820275        -4.2550291275        -6.0831476789
O         10.6940887973        -4.4714204543        -4.5141186757
O          9.6770513271        -3.0927206823        -8.9490002139
C          5.9786587213        -3.3323598868        -5.5501094684
C          5.1792447100        -4.5249425310        -5.5574468805
H          5.5769962208        -2.4097005861        -5.2239343608
C          5.3631252141        -5.7579025102        -6.2597875854
H          4.1604117779        -4.3228828339        -5.2304724107
O          4.2402059150        -6.5768042111        -6.2318825013
H          4.3641821089        -7.2672728393        -6.9481689505
O          6.4341603456        -6.1565853181        -6.8399827313
C         10.3773029850        -4.3595474661        -3.0830001613
H          9.4915320151        -4.9824047984        -2.8161082645
H         11.2034732608        -4.8875106879        -2.5610326005
H         10.1898667245        -3.3165605341        -2.7347378504
C         10.8246761693        -2.1616368057        -9.1109963869
H         11.6275550357        -2.7657272632        -9.5898138701
H         10.6029097317        -1.2277523191        -9.6326579512
H         11.2820728810        -1.8393867024        -8.1280903381
          28
ANG Step:       1332 Time:    27532.9679499853
C          3.8057968768        24.3746815589        16.4585806166
C          3.4900093972        24.6111645889        17.8106419641
C          3.6638674674        23.5436104111        18.7215347623
C          4.1673932878        22.3356221805        18.3294282552
C          4.5511899593        22.1690032440        16.9369897144
C          4.2871569113        23.1159383007        15.9882471126
H          3.3093379075        23.7765042505        19.7163347877
H          4.9743566743        21.2242855751        16.6284058929
O          3.6797503498        25.2858144785        15.4486734404
H          3.9343310371        24.7175138518        14.6730382813
O          4.4784264835        23.1238592490        14.6321483317
O          2.8530406739        25.7037534824        18.3331309091
C          4.0367211068        21.0972124862        19.1747816215
C          2.8566987305        20.2941243243        19.0237259971
H          4.7723709200        20.6226370776        19.8655151016
C          1.7487486968        20.5711068902        18.1754834667
H          2.6838983747        19.5395533822        19.8370572613
O          0.7335847785        19.7044008834        18.3517583930
H          0.0291135080        20.0718183852        17.7919456562
O          1.7974875773        21.3072265053        17.1229095087
C          4.2148522589        21.8801945408        13.8923395248
H          3.9546677635        21.0586905614        14.5814922259
H          3.5024287997        22.0573068809        13.1125477993
H          5.1495099736        21.5910118741        13.4133254419
C          2.8209019018        26.9520223964        17.6110185498
H          2.2012346858        26.8959257073        16.7057622052
H          2.4169525003        27.7314060476        18.3106438536
H          3.8264582009        27.2997758637        17.3588145314
          28
ANG Step:       1343 Time:    27760.3423099326
C          3.8133853154        24.3499718332        16.4262808111
C          3.4570784168        24.6345147816        17.7741516339
C          3.6656470054        23.5681673938        18.7375244152
C          4.1603822159        22.3104842427        18.3007109468
C          4.5307887552        22.1780443831        16.9256765081
C          4.2718748214        23.1309236578        16.0068660325
H          3.3284312987        23.7029627650        19.7622349132
H          5.0201832987        21.2339095546        16.6576345623
O          3.7000815332        25.3141683809        15.4777263854
H          3.9379160018        24.7836422721        14.6542594474
O          4.5204723499        23.1308758642        14.5918336356
O          2.8342681544        25.6780368453        18.3385483373
C          4.0396254060        21.0638627627        19.1879762814
C          2.8905757691        20.2866119035        19.0298328360
H          4.7905674716        20.7399110441        19.8538637059
C          1.7460686405        20.6066009628        18.2071663548
H          2.6865602971        19.3901847768        19.6017138085
O          0.7348968175        19.7280596861        18.3821153416
H          0.0631696051        20.0777524657        17.8046710431
O          1.7841949959        21.2855261102        17.1351591286
C          4.2279150059        21.8903159815        13.8816090795
H          3.8842279885        21.0745138869        14.5098224394
H          3.4659272512        22.0533335364        13.0817255338
H          5.2460327643        21.5850276475        13.5260293793
C          2.8117502262        26.9419753788        17.5924620100
H          2.2276788940        26.8375516157        16.6833052323
H          2.3306760484        27.5974742222        18.2775503152
H          3.8395284527        27.1919064708        17.3065650300
          28
ANG Step:       1354 Time:    27987.7166698800
C          3.8003487959        24.3884561188        16.3805583889
C          3.4251641794        24.6115451616        17.8034441144
C          3.6789539209        23.5762280974        18.7196057883
C          4.1256640310        22.2963481805        18.3072907144
C          4.5238386922        22.1569334897        16.9135651020
C          4.2745830643        23.1341337964        15.9869979522
H          3.3551597745        23.6368275885        19.7560667046
H          4.9998008236        21.2437075128        16.6456902418
O          3.7190175066        25.3353794791        15.5076424662
H          3.9109994982        24.9764608988        14.6323466958
O          4.5503618781        23.1250596577        14.5802225773
O          2.8256915641        25.6625419870        18.3174616857
C          4.0398591680        21.0459485001        19.1811445919
C          2.8980299953        20.2896616153        19.0328607568
H          4.9282241502        20.9292866799        19.8564584913
C          1.8116756818        20.6278635124        18.2149649497
H          2.8086619396        19.2993521981        19.5001490224
O          0.7093397839        19.7432266064        18.4222473027
H          0.0267562306        20.0302689160        17.7310199276
O          1.7635736294        21.2784165893        17.1534080732
C          4.2601580051        21.8987948713        13.8735520901
H          3.7479316136        21.1760395384        14.5383996290
H          3.5550576835        22.1052228799        13.0945801831
H          5.2202208006        21.5405400094        13.4900028677
C          2.7998933430        26.9130880062        17.5751354305
H          2.2157736950        26.7680327189        16.6540352100
H          2.2756483732        27.6016824900        18.2730426955
H          3.8274421091        27.1684020446        17.3141371510
          28
ANG Step:       1556 Time:    32163.1367343672
C          3.8776997421        24.4813286305        16.2659424202
C          3.4039665120        24.5817355066        17.6449028961
C          3.4152208051        23.4027905219        18.3943730236
C          3.9652113053        22.1649797884        18.0000896085
C          4.5100704210        22.0869917500        16.6488986122
C          4.3633297944        23.1725312702        15.7886389064
H          3.0891358943        23.4164446430        19.4229358513
H          5.0580843955        21.1637698640        16.4314097134
O          3.9615759803        25.5530951374        15.4690206885
H          4.2498715432        25.3435825481        14.5480133047
O          4.8530986452        23.2951232211        14.5137759821
O          3.0003376797        25.7092076215        18.2755029233
C          4.0798281422        21.0277110711        19.0255883809
C          2.9573477253        20.2712208951        19.2430238383
H          4.9078036702        21.0743263012        19.7139875391
C          1.7351033262        20.5517095519        18.5995693556
H          3.0832847240        19.5694303218        20.1222061820
O          0.6466446446        19.6835532062        18.9162074891
H          0.0809646663        19.8511355474        18.1229734718
O          1.7042897707        21.1381768406        17.4900183621
C          4.6369632161        22.2536346605        13.5815956408
H          3.5740482375        22.2008082562        13.2987675249
H          5.3710104696        22.4114273649        12.7295307605
H          4.8136373733        21.2386652966        14.0624376805
C          2.2842139659        26.6779273181        17.4947356592
H          1.5536087515        26.2332082263        16.8370526205
H          1.7696303640        27.3759670590        18.1647254630
H          2.9589886854        27.2644854861        16.8590154371
          28
ANG Step:       1565 Time:    32349.1703015969
C          3.8660762964        24.4408873860        16.2572107972
C          3.4046288116        24.6029085700        17.6281493265
C          3.4248915469        23.3813113528        18.4054994269
C          3.9590595835        22.1550612058        18.0101612531
C          4.4827337170        22.0909928765        16.6210184036
C          4.3830717387        23.1841692305        15.8055612162
H          3.0515440505        23.4185372312        19.4333862235
H          5.0352416516        21.2014832345        16.4324863142
O          3.9670218900        25.5599869650        15.4912365080
H          4.1786733348        25.3341550121        14.5709450064
O          4.8716767177        23.3011693429        14.4968328993
O          3.0218314067        25.7090767192        18.2623392177
C          4.0741583721        21.0446318281        19.0395523199
C          2.9784984182        20.2630424865        19.2526992694
H          4.8687039815        21.0164359004        19.8162327827
C          1.7379365696        20.5471862668        18.6277040954
H          2.9871240334        19.6756105249        20.1437041240
O          0.6669776468        19.6794728846        18.9304863633
H          0.0212056690        19.7235711680        18.2112996469
O          1.6663915230        21.1465457304        17.4741523893
C          4.6631087580        22.2747624690        13.5489112631
H          3.5962183758        22.1876625970        13.1664240263
H          5.3086490935        22.4185783023        12.7215619304
H          4.8736556707        21.3747237002        14.0423842642
C          2.2672349453        26.6805849808        17.4734068996
H          1.5103936158        26.1819996342        16.8380081128
H          1.7322444477        27.2768244326        18.2310332295
H          2.9439459025        27.2001236071        16.8044271065
          28
ANG Step:       1762 Time:    36421.2383842899
C          4.0222362082        24.5914764816        16.2017488499
C          3.5375042436        24.6302203498        17.5285116702
C          3.4863117500        23.5204360029        18.3325922448
C          3.9286554109        22.2528423483        17.8862309001
C          4.4021473010        22.2241907585        16.4878063573
C          4.5259128958        23.3602436023        15.6965564552
H          3.1057057980        23.6985010758        19.3272475882
H          4.5554774775        21.2097997554        16.1100362972
O          4.0796828105        25.6774510339        15.4715563372
H          4.2770440767        25.3839481511        14.5577065251
O          4.8569890378        23.4286318392        14.3915591222
O          3.0089611558        25.7461458990        18.0734183307
C          4.0525375853        21.0862414031        18.7289963917
C          3.0191660008        20.1931857923        19.1182423616
H          5.0394567474        21.1120520000        19.1420571736
C          1.6945158293        20.3947411928        18.7599753791
H          3.2667865444        19.2856607741        19.7042563755
O          0.7315707057        19.4556684525        19.2480076613
H         -0.0530647301        19.8110194456        18.8081692886
O          1.3792569563        21.0927716496        17.7634567804
C          5.0772849274        22.1888386607        13.7189446655
H          4.1773945758        21.6021652448        13.8072131747
H          5.1903395725        22.4371474277        12.6656014369
H          5.9516167406        21.5830814904        14.0334803645
C          1.9718339817        26.4131070258        17.3824281596
H          1.2683809377        25.6064846599        17.1448742060
H          1.5959379797        27.1345539103        18.0860990784
H          2.3822354716        26.9964518933        16.5494646136
          28
ANG Step:       1771 Time:    36607.2719515195
C          4.0249533378        24.5838858699        16.2073571722
C          3.5316771151        24.6270165988        17.5393807874
C          3.4739942770        23.5075363283        18.3273499708
C          3.9324204464        22.2865910242        17.8561080330
C          4.4123867177        22.2195108876        16.4993192503
C          4.5426731086        23.3562099098        15.6777763640
H          3.0613782994        23.6731229301        19.3235280859
H          4.6304774350        21.2964984605        16.0061962467
O          4.0888861831        25.6937163846        15.4916069153
H          4.2108254587        25.4682228806        14.5444239984
O          4.8378267295        23.4210210199        14.3760062641
O          3.0229550678        25.7484468308        18.0676383931
C          4.0563692659        21.0866495786        18.7139340995
C          3.0238482849        20.1818845460        19.1082399258
H          5.0226652302        20.9757877605        19.2466397124
C          1.7129571110        20.4045854191        18.7719479955
H          3.2844260487        19.2224817282        19.5907708084
O          0.7478238034        19.4731061021        19.2327487797
H         -0.1455872822        19.7457656393        18.9071590538
O          1.3645769504        21.0834984504        17.7858799425
C          5.0981476963        22.1560304810        13.7185407990
H          4.2330243186        21.5238940891        13.9807319533
H          5.2512508456        22.4041420544        12.6538599886
H          5.9607739016        21.5894321875        14.0989085938
C          1.9433711478        26.4273016481        17.3880296338
H          1.1688001829        25.7067039340        17.0898892084
H          1.5155354021        27.2237661945        18.0460851653
H          2.2508408116        27.0000140286        16.5004256903
          28
ANG Step:       1783 Time:    36855.3167078257
C          4.0463961050        24.5702061230        16.2141591956
C          3.5032372615        24.6290882511        17.5534442282
C          3.4633315418        23.5061048572        18.3271363377
C          3.9473241914        22.2971201969        17.8104827221
C          4.4309370569        22.2331160253        16.4842035120
C          4.5272357599        23.3326940035        15.6897025267
H          3.0177286385        23.5234056271        19.3137379351
H          4.7588165473        21.2926050886        16.0682126174
O          4.0927689266        25.7239358002        15.5112353412
H          4.2145863748        25.5475313445        14.5824172621
O          4.8304924224        23.4029980703        14.3480556433
O          3.0333409266        25.7773748029        18.0609959728
C          4.0645158919        21.0575572110        18.7116100714
C          3.0662949706        20.1809173828        19.1020162645
H          4.9539656639        20.8820690209        19.2650870664
C          1.6968313898        20.3740390436        18.7425135816
H          3.3371573268        19.2248273284        19.5962303971
O          0.7791952326        19.4932851609        19.2313992956
H         -0.1505821188        19.7355451934        18.9579632080
O          1.3354939160        21.1079312796        17.8087130343
C          5.1135148686        22.1106340159        13.7308378231
H          4.3085861734        21.4248181777        13.9456343375
H          5.2510497807        22.2986647761        12.6640094570
H          6.0432730680        21.7522065999        14.2200474536
C          1.9000873539        26.4585010565        17.3853598173
H          1.0532106634        25.8273489609        17.0827218667
H          1.4886488270        27.1608133131        18.0823777968
H          2.1919647603        26.9106275946        16.4335728077
          28
ANG Step:       1792 Time:    37041.3502750553
C          4.0637010672        24.5764921725        16.2212129118
C          3.4753091624        24.6364078775        17.5549352063
C          3.4579308766        23.5044229119        18.3268049941
C          3.9636261175        22.2658872809        17.8009316551
C          4.4528366826        22.2307338418        16.4621464571
C          4.4980050923        23.3285119535        15.6847371276
H          2.9968240893        23.4253249387        19.3095176262
H          4.8370137894        21.2492742555        16.2300546127
O          4.0903172335        25.7407115125        15.5326934737
H          4.2933343165        25.5440865430        14.5688948754
O          4.8267021403        23.3815492625        14.3335559629
O          3.0236497333        25.8163618432        18.0511013396
C          4.0776002492        21.0410900235        18.7007225299
C          3.0745465408        20.1788003614        19.0952958689
H          5.0530727679        20.9425325941        19.2177994911
C          1.6956266678        20.3328558325        18.6983268498
H          3.3756418665        19.2967795042        19.7004622054
O          0.7979052021        19.4924698132        19.2504404741
H         -0.0321472107        19.8026753003        18.9156622802
O          1.3080783487        21.1527844440        17.8170167630
C          5.1316610223        22.0882114899        13.7568695199
H          4.3378232449        21.3285508184        13.8345692963
H          5.2412323062        22.2179691873        12.6650658258
H          6.0888151881        21.8395553766        14.2184329251
C          1.8710860337        26.4736074956        17.3738108778
H          1.0439408597        25.7683412054        17.1833613239
H          1.5381238231        27.1757025574        18.1783445036
H          2.2488900246        26.9077902508        16.4441665710
          28
ANG Step:       1865 Time:    38550.2892092512
C          3.8862200267        24.5735668402        16.1612383106
C          3.3744471141        24.6097880714        17.4749535654
C          3.4136089449        23.4745276754        18.2496187357
C          4.0306359249        22.2574067197        17.8173529819
C          4.4261996781        22.1564100965        16.5068646974
C          4.4086751831        23.2811022452        15.6682203230
H          2.9884701136        23.5748493383        19.2384833527
H          4.8386978691        21.2568226297        16.1289295795
O          4.1714936585        25.7101116461        15.5493333692
H          4.6297229413        25.5254869162        14.6750438996
O          4.7576164682        23.2811992606        14.3939603576
O          3.0039030918        25.8247928686        18.0026705549
C          4.1994768179        21.0404229089        18.6164484496
C          3.1202418862        20.2281016209        18.9585474486
H          4.9916311965        21.2449072397        19.3429505079
C          1.7284823000        20.4949822200        18.6800413646
H          3.2668325322        19.2645312495        19.4444728027
O          0.9665516884        19.4546634665        19.2197991464
H          0.1219360790        19.7497868703        18.9370919794
O          1.2566044197        21.3136499267        17.8705878704
C          5.2862212875        22.0916068632        13.8291148953
H          4.5844590072        21.2230490472        13.9963166349
H          5.4580865735        22.4409545059        12.8225019153
H          6.2114835385        21.7992502828        14.3237170464
C          1.8300307162        26.4462442284        17.4420588427
H          0.9241121931        25.8081848376        17.4784998308
H          1.6278050462        27.3315325354        18.0142975708
H          1.8656674759        26.7439554873        16.3705754385
          28
ANG Step:       1876 Time:    38777.6635691985
C          3.8851811485        24.5506722143        16.1569474018
C          3.3551976416        24.5779050301        17.4650501808
C          3.4070176837        23.4905792852        18.2658876891
C          4.0094987024        22.2628961976        17.8323670965
C          4.4121578330        22.1820709517        16.4961150924
C          4.3867835352        23.2514706103        15.6942921191
H          2.9664206963        23.6113051192        19.2444678998
H          4.8406654390        21.2106518108        16.1626915355
O          4.1922785209        25.7002754420        15.5139761440
H          4.5033567506        25.4687430364        14.6411788766
O          4.7588782518        23.2941705018        14.3652208141
O          2.9825138782        25.8010269308        17.9933442207
C          4.1892750581        21.0710126938        18.6349037059
C          3.1582954347        20.2313284779        18.9543322150
H          5.0760873056        21.0870163094        19.2857673632
C          1.7890451396        20.5475135648        18.7017837636
H          3.2151692948        19.2777120853        19.4698256363
O          0.9598909164        19.4517421981        19.1919929635
H         -0.0059697561        19.6149613078        18.9330193669
O          1.2443583553        21.3258121028        17.8775556464