          28
ANG Step:       1711 Time:    35367.0481699886
C          4.3754958286        11.9432687280         2.8734528232
C          4.2269872173        11.5053326557         4.2494484058
C          5.3492666579        11.3604847784         5.0531914602
C          6.6816593149        11.6182984094         4.5939567527
C          6.8111789733        12.0434916267         3.2523841081
C          5.7213672945        12.3025352447         2.4567212929
H          5.1799675515        10.9018253425         6.0686565802
H          7.7412321778        12.3022572417         2.7565321096
O          3.2976107483        12.1472827993         2.1346144276
H          3.3759813771        12.6376125410         1.3199983872
O          5.7408181258        12.8302390889         1.2711717195
O          2.9199733110        11.2626042105         4.6318393981
C          7.8650872391        11.3689596105         5.4905633439
C          8.2174347710        12.3084966217         6.4165739309
H          8.2329366277        10.3946808772         5.5890233617
C          7.5754008105        13.5485669568         6.6323170087
H          8.9655632961        12.1160035607         7.1749492049
O          8.1411732456        14.2391571519         7.7374556654
H          7.4823745659        14.9462168025         7.9182819004
O          6.6189144088        14.0696921338         6.0328330602
C          6.9465396386        13.2024079435         0.6669170344
H          7.4556252817        14.0497765433         1.2559925838
H          7.6481375251        12.2950820116         0.5624256457
H          6.6313057128        13.5518843947        -0.3108595164
C          2.4642000692        12.0362720376         5.7743721991
H          2.2599955041        11.3881327239         6.6242956227
H          3.3062991292        12.6566402990         6.0266889699
H          1.5862636283        12.6646320794         5.5077783314
          28
ANG Step:       1720 Time:    35553.0817372183
C          4.3810655362        11.9378129178         2.8804583006
C          4.2121495669        11.4968728452         4.2662680411
C          5.3463488595        11.3619937333         5.0549476898
C          6.6796313858        11.6161884303         4.6131833051
C          6.8359362581        12.0727568635         3.2620580324
C          5.7011252596        12.2876563226         2.4402415589
H          5.3218720297        10.8117806663         5.9566080465
H          7.7997798315        12.3623406791         2.8572845460
O          3.2861570285        12.1330866522         2.1116638128
H          3.4447942978        12.7131752597         1.3161717384
O          5.7429079301        12.8722117135         1.2902266152
O          2.9300863574        11.2638140580         4.6545844748
C          7.8371282120        11.3636291541         5.4730018342
C          8.1968206666        12.3671102530         6.3960585601
H          8.2557330355        10.3147339230         5.5596755226
C          7.6013696006        13.5445072718         6.6767068341
H          9.0457523330        12.0758855377         7.0168025080
O          8.1301915893        14.2231047169         7.7298437124
H          7.4816561260        14.8819660101         7.9831342996
O          6.6153975781        14.0781817904         6.0700694160
C          6.9456789722        13.1492836911         0.6488531879
H          7.4765807653        13.9563782250         1.1861484347
H          7.5625626957        12.3218739502         0.5905245378
H          6.6176484725        13.4527717600        -0.3435842197
C          2.4662950520        12.0464392014         5.7737402082
H          2.2344409989        11.3899060192         6.6002643008
H          3.2483437695        12.7072534176         6.1695810273
H          1.6149612741        12.6331010551         5.5403680456
          28
ANG Step:       1733 Time:    35821.7968898833
C          4.3679316144        11.9388742248         2.9136613536
C          4.2006442937        11.4913240646         4.2651985156
C          5.3341973326        11.3387066437         5.0422919900
C          6.6642398895        11.6189436464         4.5854908662
C          6.8404505615        12.1163548833         3.2841618428
C          5.7079989559        12.2520169829         2.4809358549
H          5.3327910664        10.7956849297         6.0192534422
H          7.8749538996        12.4019741656         3.0879329128
O          3.2834545359        12.1146539776         2.0914821476
H          3.6751541333        12.6785187657         1.4042833632
O          5.7153533195        12.9351173214         1.2861612506
O          2.9471212059        11.2721490284         4.6885060504
C          7.8056042990        11.3671176340         5.4539609562
C          8.2179838681        12.3682486726         6.3656520533
H          8.1948052213        10.3793323515         5.4746322784
C          7.5836596922        13.5846664020         6.7114249168
H          9.1350207848        12.0965933838         6.8564495021
O          8.1333701267        14.2106021518         7.7481460432
H          7.4468121312        14.8603905545         8.0008198033
O          6.6077628993        14.0817911820         6.1239452619
C          6.9495371511        13.0928349341         0.6031842492
H          7.5839956350        13.9375364243         1.0848774811
H          7.5685202935        12.1293580801         0.6080152438
H          6.7243541531        13.3721844184        -0.4178863735
C          2.4840829893        12.0559643307         5.8018749899
H          2.1462445863        11.3388336278         6.5463794386
H          3.1833148849        12.7515913830         6.2242529447
H          1.5758527611        12.5980726612         5.4432994510
          28
ANG Step:       1743 Time:    36028.5008534718
C          4.3420190505        11.9388091461         2.9456522850
C          4.2036141441        11.4895728171         4.2598314314
C          5.3275812096        11.2989080571         5.0350648748
C          6.6320889911        11.6177129541         4.5532897140
C          6.8274392018        12.1437167261         3.3070948048
C          5.7359488989        12.2565266078         2.5035357903
H          5.1817779850        10.9606180664         6.0308945660
H          7.8359953946        12.4529061917         3.1105765660
O          3.3131096949        12.1048581804         2.0935647826
H          3.7663862988        12.6034298162         1.3555285262
O          5.6841110306        12.9684937752         1.2837847340
O          2.9591793952        11.2803780841         4.7132510379
C          7.7851031902        11.3961338309         5.4447114768
C          8.2525803546        12.3370522626         6.3425166169
H          8.2131273564        10.3617729842         5.4049454714
C          7.5657081970        13.5863767657         6.6995133695
H          9.2028228240        12.1699690624         6.8706114547
O          8.1477280385        14.2203530856         7.7940059970
H          7.4769280320        14.8948937353         7.9910590282
O          6.5824630369        14.0885707906         6.1591516839
C          6.9778412176        13.0508396484         0.5673431553
H          7.5833422521        13.8277041631         0.9823518324
H          7.4461498132        12.1136157366         0.6348174917
H          6.7881395195        13.3156316532        -0.4823158156
C          2.4723154636        12.0554450143         5.8278140401
H          2.0904016054        11.3246274020         6.5530766908
H          3.2405625617        12.7760803504         6.2073435695
H          1.6409684348        12.5584917917         5.3809299428
          28
ANG Step:       1754 Time:    36255.8752134191
C          4.3462030702        11.9446967304         2.9567695014
C          4.2000959771        11.4814177824         4.2700108102
C          5.3148154950        11.2618285542         5.0178189929
C          6.5951857464        11.6011354253         4.5681710580
C          6.8126062221        12.1714079719         3.3145800048
C          5.7276611942        12.3084935727         2.4861180608
H          5.0769016709        11.1193307245         6.0951258982
H          7.7867175864        12.5427013155         2.9964202253
O          3.3683138075        12.1018672479         2.1034673876
H          3.7205648729        12.4502258317         1.2524361773
O          5.6664598145        12.9831630566         1.2909168618
O          2.9674512674        11.2827796634         4.7360683692
C          7.7734681539        11.4105272584         5.4270885686
C          8.2828790203        12.3427663106         6.3415189947
H          8.2378124305        10.4600267683         5.3031126757
C          7.5857476906        13.5419722934         6.6820399434
H          9.1856820509        12.1945455091         6.8997774873
O          8.1627193625        14.2345162228         7.8468054148
H          7.5612152630        14.9767860198         7.9884242364
O          6.5334368669        14.1000288779         6.1878910520
C          6.9802300596        13.0081527708         0.5288796741
H          7.6695754218        13.8038362810         0.9966122615
H          7.4266604379        11.9669879507         0.6493674523
H          6.7604925674        13.2215690850        -0.5079984343
C          2.4590166750        12.0484792532         5.8442332124
H          2.0947060697        11.3776734672         6.6459363878
H          3.2452109140        12.7129840427         6.2134814234
H          1.6143477669        12.6596835859         5.4050399002
          28
ANG Step:       1765 Time:    36483.2495733664
C          4.4063241750        11.9620381381         2.9368816183
C          4.1843653865        11.4712005688         4.2816828747
C          5.2910029582        11.2400473850         5.0252186236
C          6.5855467264        11.5919422200         4.6042478005
C          6.7836944055        12.1969096821         3.2957971107
C          5.6837341622        12.3837828578         2.4680337513
H          5.1683711160        11.1435094990         6.0771662009
H          7.7350184977        12.5739595342         2.9633650679
O          3.4072352504        12.0987278231         2.1099420507
H          3.7031094207        12.3103358471         1.2157637464
O          5.6764544994        12.9834890521         1.2878344039
O          2.9557113561        11.2760371830         4.7550934591
C          7.7801103254        11.4210253179         5.4210765074
C          8.2852018776        12.3732210919         6.3433850765
H          8.3388231243        10.4888357777         5.1953391072
C          7.5903887329        13.5352908787         6.6854031618
H          9.1815101382        12.1136954896         6.9286470771
O          8.1745363890        14.2316827293         7.8780593683
H          7.6302611471        15.0499799207         7.9247666026
O          6.5087993576        14.0862066281         6.2214560393
C          6.9670532981        12.9574452756         0.5215177298
H          7.6255858147        13.6660669048         0.9295505175
H          7.3943560061        11.9850026146         0.6074351037
H          6.6704865866        13.1567206241        -0.5184484513
C          2.4432003858        12.0504674422         5.8473512886
H          2.1188421841        11.4332595542         6.7005665275
H          3.2669143692        12.6760289499         6.2794767311
H          1.6531491837        12.7187634613         5.5676751961
          28
ANG Step:       1776 Time:    36710.6239333138
C          4.4589213520        11.9778669844         2.9200514943
C          4.1743457570        11.4696937179         4.2793435092
C          5.2843097592        11.2356381236         5.0552662437
C          6.5952679893        11.6109044010         4.6023713063
C          6.7309975457        12.2136625614         3.2846709481
C          5.6676117609        12.4523807458         2.4898021418
H          5.2631541509        10.9694311009         6.1307068900
H          7.7398276607        12.5456415659         3.0370308765
O          3.4161310601        12.0902376324         2.1113578620
H          3.7695965706        12.2500054079         1.1905789718
O          5.7024994906        12.9827300482         1.2535897834
O          2.9193376098        11.2662154655         4.7634041055
C          7.8090173440        11.4238215722         5.4374896613
C          8.2729365982        12.3900795286         6.3358536227
H          8.4289504677        10.5926990729         5.1348780779
C          7.5665804107        13.5885890544         6.7241039870
H          9.1259471078        12.0746095416         6.9014067846
O          8.1771033883        14.2131898021         7.8790515965
H          7.7058185428        15.0532770438         7.8389407664
O          6.5186675434        14.0443871146         6.2609846211
C          6.9136986870        12.9020395713         0.5214752951
H          7.6844660701        13.7041491467         0.8860820164
H          7.3980907143        11.8798918079         0.5703499324
H          6.6164084405        13.1402939302        -0.4880852161
C          2.4569672816        12.0647212365         5.8745525873
H          2.1011793599        11.3680227524         6.6523910372
H          3.2728059811        12.6562064666         6.2894337649
H          1.6114799828        12.7603509217         5.5881255885
          28
ANG Step:       1786 Time:    36917.3278969022
C          4.4373812612        11.9827456287         2.9308232763
C          4.1796158364        11.4745191836         4.2838760449
C          5.3041595139        11.2431333333         5.0920857828
C          6.5987120841        11.6386538836         4.5843994987
C          6.7116962299        12.2265483709         3.3102404297
C          5.6873778743        12.5085032248         2.5091388914
H          5.2546448197        10.7512985232         6.0451028851
H          7.7203015831        12.5031381965         3.0848403816
O          3.4147472932        12.0772517457         2.1021007837
H          3.7918021822        12.2723815295         1.2393288124
O          5.7169609712        12.9801941733         1.2170858533
O          2.8851341462        11.2623549835         4.7515003496
C          7.8251305386        11.4275371916         5.4505522346
C          8.2493807775        12.4126870580         6.3332134780
H          8.5275685242        10.6384965125         5.1131237188
C          7.5776405405        13.6112982885         6.7801547640
H          9.1479893925        12.1286552659         6.9071733206
O          8.1704247750        14.1937236617         7.8599184953
H          7.7784811830        15.0955453080         7.8550617419
O          6.5189923940        14.0107715022         6.2899126510
C          6.8852616392        12.8604221452         0.5197711978
H          7.6036909736        13.5990117788         0.8106075983
H          7.3146320166        11.8890622256         0.5521489580
H          6.6123539954        13.1241358077        -0.5177717822
C          2.4695087746        12.0802045753         5.9085736675
H          2.0746905270        11.3128975147         6.5628588657
H          3.3163146666        12.6619166958         6.2997648933
H          1.6796016128        12.6815096814         5.5467888031
          28
ANG Step:       1798 Time:    37165.3726532084
C          4.3726756582        11.9996214853         2.9682919129
C          4.1905761020        11.4819168558         4.3137216582
C          5.3328610402        11.2565839628         5.0948496134
C          6.5946313613        11.6550015370         4.6067948349
C          6.7477437550        12.2584367433         3.3590176953
C          5.6905766976        12.5495881407         2.5117912867
H          5.2059718788        10.5971308542         5.9540719950
H          7.7592019771        12.5089375747         3.0433794610
O          3.4012474495        12.0546838210         2.0862280360
H          3.7857284641        12.3963381804         1.2343293346
O          5.6941752279        12.9714419565         1.2093662744
O          2.8745121239        11.2701258978         4.7153903159
C          7.8189317291        11.4321246992         5.4499786303
C          8.2415685620        12.4459888132         6.3559925014
H          8.5768845452        10.7169892675         5.1147369425
C          7.6025226092        13.5694933142         6.8150820749
H          9.1800093563        12.2729468414         6.8555209891
O          8.1689225838        14.1914126954         7.8482131561
H          7.8595540796        15.1042198050         7.9527885858
O          6.4975761912        13.9897728949         6.3180117178
C          6.8767412057        12.8223405832         0.4709747329
H          7.6951447983        13.5764801989         0.8513679481
H          7.2573399622        11.7696984476         0.5638466357
H          6.6485346178        13.0357926899        -0.5658948325
C          2.4929685689        12.0685229535         5.9269951027
H          2.0646971687        11.3522778040         6.6361258350
H          3.3195924455        12.6325989674         6.3476673364
H          1.6829175097        12.7370290271         5.5168537031
          28
ANG Step:       1808 Time:    37372.0766167969
C          4.3453821456        12.0387347957         2.9971817204
C          4.1888606325        11.4942639520         4.3344809067
C          5.3332976486        11.2557513296         5.0700394593
C          6.6043164668        11.6604191306         4.6557014340
C          6.7869702802        12.3117549424         3.3707878883
C          5.6722886291        12.5413308191         2.5332305783
H          5.2264928762        10.6258434478         5.9391436013
H          7.7857273198        12.5383765246         3.0347832417
O          3.3783417484        12.0338940735         2.0693835579
H          3.7504040846        12.5023072193         1.2963684166
O          5.6563266658        12.9619237953         1.2238902489
O          2.8924183878        11.2874428884         4.6904842296
C          7.8079806574        11.4513912805         5.4622177080
C          8.2655206504        12.4382652095         6.3676255800
H          8.5485823793        10.7358069869         5.1029436054
C          7.5607106986        13.5395779285         6.8017190792
H          9.2751650836        12.3381575619         6.7894489455
O          8.1902374932        14.2015543540         7.8649581271
H          7.8082111269        15.0823416357         7.9613768558
O          6.4849596938        13.9752170114         6.3469313969
C          6.9042537047        12.7912966231         0.4289703489
H          7.6581261079        13.4282709440         0.8148695493
H          7.1992892699        11.7726467337         0.5715432575
H          6.6561538975        12.9779198202        -0.6278259357
C          2.4978279627        12.0438721629         5.9134761486
H          2.0835829079        11.4400105769         6.7251374449
H          3.3473234483        12.5844761223         6.3665214586
H          1.7827941302        12.7723808370         5.6263214794
          28
ANG Step:       1819 Time:    37599.4509767442
C          4.3451019207        12.0947875063         3.0077147506
C          4.1784257354        11.5214410634         4.3221617372
C          5.3174391523        11.2396748917         5.0442755673
C          6.6279286284        11.6884973187         4.6795911331
C          6.7899667531        12.3724262816         3.3732205413
C          5.6602954995        12.5027879376         2.5748426308
H          5.2698762992        10.7561562311         6.0222046652
H          7.8094806520        12.6141001248         3.0690616941
O          3.3541718188        12.0154427478         2.0679299181
H          3.7074037090        12.5695576049         1.3385340076
O          5.6243907717        12.9495366694         1.2423666028
O          2.9157092839        11.3127922918         4.6876758623
C          7.8093233460        11.4694152033         5.4971246684
C          8.3134580145        12.4053964564         6.3690730340
H          8.4676724132        10.7040586801         5.0621213422
C          7.5122040025        13.5284700874         6.7958711952
H          9.3299289391        12.3433538159         6.7048418101
O          8.2192210258        14.2130380879         7.8858212639
H          7.6641319419        15.0274336795         7.9206517922
O          6.4566501744        13.9632858029         6.3757859317
C          6.9018411132        12.7458945417         0.4000123647
H          7.7494520324        13.4346023045         0.8005538033
H          7.2050993584        11.6794554907         0.5427705562
H          6.6384329296        12.9643646186        -0.6244431529
C          2.5175398135        12.0169086939         5.8999855143
H          2.0921270117        11.3747624467         6.6941278426
H          3.4200624959        12.5035141461         6.3023931626
H          1.7776954877        12.8529274809         5.6533331349
          28
ANG Step:       1830 Time:    37826.8253366915
C          4.3446241943        12.1323133677         2.9968984396
C          4.1786737004        11.5545019297         4.2845687634
C          5.3150198720        11.2307001390         5.0336242634
C          6.6334807811        11.7407039037         4.6593749707
C          6.7631197832        12.4085749925         3.3977252853
C          5.6666067069        12.4733511825         2.5856867346
H          5.2426346905        10.9220348142         6.0801773738
H          7.7470772808        12.7370332355         3.0926023669
O          3.3478867161        12.0116952884         2.0924370348
H          3.6344018554        12.5536115097         1.3060692145
O          5.6225636032        12.9290415747         1.2599848072
O          2.9232801142        11.3364970093         4.6990144523
C          7.8159298247        11.4531805315         5.5199265283
C          8.3432400542        12.4046997228         6.3785622751
H          8.4189870697        10.6926672240         5.0470837879
C          7.5426751035        13.5037169319         6.8222596882
H          9.3793390784        12.3091825030         6.7169456953
O          8.2253764010        14.2253454340         7.8855353184
H          7.5949324238        14.9538794688         7.9693052237
O          6.4031245387        13.9561267987         6.3973804308
C          6.8784856141        12.7027835429         0.4174023708
H          7.6466691883        13.3542064604         0.7060834945
H          7.1953166215        11.6651533538         0.4654752997
H          6.5736527499        12.9800762655        -0.6022074144
C          2.5427163903        12.0085960106         5.8930301096
H          2.1056603460        11.2174330726         6.5181571929
H          3.4779715606        12.4331203353         6.2957248122
H          1.8391232212        12.7643468098         5.6429713816
          28
ANG Step:       1841 Time:    38054.1996966389
C          4.3401485778        12.1337061830         2.9755298467
C          4.1953188436        11.5758726362         4.2625238825
C          5.3228424009        11.2653427730         5.0217821764
C          6.6147341529        11.7849031416         4.6409556949
C          6.7352841162        12.4263994182         3.4329107312
C          5.6719502779        12.4736073189         2.5483669084
H          5.1713134649        10.9771010255         6.0457026931
H          7.6661483691        12.8689346549         3.0971479781
O          3.3511239590        12.0270184182         2.1273985221
H          3.5640659909        12.4356779708         1.2874537681
O          5.6550097146        12.8960841356         1.2764539548
O          2.9278012357        11.3540966692         4.6928293465
C          7.8129894852        11.4278311649         5.5192757389
C          8.3528460912        12.4222422488         6.3908978597
H          8.4880603339        10.6801080843         5.0438052232
C          7.5807390974        13.5010828306         6.8570100684
H          9.3350360584        12.2704872455         6.8189143687
O          8.2088339613        14.2319444542         7.8626934640
H          7.5768769234        14.9356396688         8.1008354171
O          6.3838714033        13.9271274743         6.4317406344
C          6.8099357032        12.6660902076         0.4456583263
H          7.6798284969        13.3982581608         0.7377826596
H          7.1537875885        11.6182958735         0.4388919188
H          6.4709110677        12.9556385253        -0.5453945637
C          2.5806614729        11.9847044423         5.8952670425
H          2.1061684110        11.1696245431         6.4591118797
H          3.4347270742        12.4256701309         6.4417696157
H          1.7958926078        12.7820051375         5.6372745888
          28
ANG Step:       1851 Time:    38260.9036602273
C          4.3587338158        12.1098013403         2.9582902216
C          4.2144812648        11.5840229682         4.2649281493
C          5.3202639098        11.3336424597         5.0058408232
C          6.6018184610        11.7946783254         4.6605211057
C          6.7160903825        12.4513280311         3.4305823934
C          5.6666003904        12.4857200232         2.5234445090
H          5.1487268554        10.9037418926         5.9996677427
H          7.6395555317        12.9340915837         3.1444331321
O          3.3375961317        12.0478379513         2.1553900506
H          3.5797183408        12.3439508752         1.2332274822
O          5.6923195097        12.8633155567         1.2808795477
O          2.9442510735        11.3668299419         4.6678035125
C          7.8090718906        11.4238603035         5.5094554349
C          8.3417722238        12.4252999169         6.3920659065
H          8.5220839677        10.7384009492         5.0657667965
C          7.5673717112        13.5291776708         6.8726394365
H          9.2732634815        12.2310794158         6.9383757259
O          8.1894158899        14.2386641431         7.8395170041
H          7.5639472158        14.8958328624         8.1890548190
O          6.4149610774        13.8759126771         6.4789392019
C          6.7586757011        12.6541833685         0.4703467332
H          7.5736965584        13.2786579662         0.7534342336
H          7.0779703383        11.6123288875         0.4837829282
H          6.3920417675        12.9133354559        -0.5359334888
C          2.5909435110        11.9666349416         5.9109329150
H          2.0834096757        11.2309552987         6.5295316302
H          3.3462715764        12.4093213408         6.5538145894
H          1.8828269077        12.7128870822         5.7304366849
          28
ANG Step:       1863 Time:    38508.9484165335
C          4.3975096450        12.0619928280         2.9462814244
C          4.2202941086        11.5978995861         4.2644220790
C          5.3139758115        11.4105865032         5.0288894958
C          6.6112703049        11.7899142365         4.6923020896
C          6.7053948351        12.4911456318         3.4050211003
C          5.6633259379        12.4941682258         2.5508055264
H          5.2094082292        10.8190615102         5.9022206080
H          7.6720646482        12.9230830482         3.1985596138
O          3.3033242256        12.0788486285         2.1679991017
H          3.6444576119        12.2498210448         1.2733527304
O          5.6889538610        12.8443775188         1.2719141808
O          2.9689318990        11.3829323667         4.6426363540
C          7.7975082980        11.4539923734         5.5068024027
C          8.3093294385        12.4228595405         6.3961031430
H          8.5417204427        10.7756420618         5.0095108432
C          7.5512453938        13.5357182029         6.8655659094
H          9.1792637947        12.1764725567         6.9908936318
O          8.1802762691        14.2596040353         7.8327426550
H          7.5081875359        14.8357106836         8.2089401359
O          6.4461954227        13.8125896673         6.5329663898
C          6.7329358316        12.6277881450         0.4578120885
H          7.6798337313        13.2629363455         0.7647453317
H          7.0180708153        11.5670182716         0.5359915293
H          6.4097427296        12.8644845057        -0.5598487561
C          2.5803096801        11.9372451264         5.9577280002
H          2.0623478356        11.2084015040         6.5861903465
H          3.4409865419        12.3481722166         6.5101494872
H          1.8531019102        12.7980331799         5.7422702930
          28
ANG Step:       1873 Time:    38715.6523801220
C          4.3976457663        12.0158914649         2.9419630532
C          4.2150721384        11.6172352264         4.2596207272
C          5.3288355900        11.4484214368         5.0825879104
C          6.6167623318        11.8023736327         4.6896828173
C          6.7242905152        12.5144328218         3.4173392187
C          5.6695024523        12.4985082665         2.5737996171
H          5.2419856275        10.7745212826         5.9561461262
H          7.7054698466        12.8931514313         3.1467661600
O          3.2875420658        12.1049258373         2.1728755087
H          3.6566559507        12.2410161823         1.2684963146
O          5.6393504876        12.8528433975         1.2589842725
O          2.9720873768        11.3970459908         4.6422528135
C          7.7919333111        11.4808208320         5.5037926559
C          8.2844124253        12.4190737768         6.4085869242
H          8.4662716259        10.8291933165         4.9866191504
C          7.6000339536        13.4998399746         6.8671703800
H          9.1824413955        12.1410446546         6.9573480743
O          8.1864773422        14.2858096406         7.8431960602
H          7.4326103654        14.8121911319         8.1906462214
O          6.4062362395        13.7800852879         6.5563553145